30
# CELL(abcABC):    9.58988     9.58988    25.88886    90.00002    89.99998   120.00001  Step:           0  Bead:       0 positions{atomic_unit}  cell{atomic_unit}
      Nb  9.33867e-07  1.71897e-05  2.74699e-02
      Nb -2.20985e-06  4.43240e-06  1.29719e+01
      Nb  4.79494e+00  2.76835e+00  8.65710e+00
      Nb  4.79496e+00  2.76838e+00  2.16015e+01
      Nb  4.24677e-06  5.53673e+00  1.72867e+01
      Nb -1.33924e-06  5.53672e+00  4.34229e+00
      Li -1.37153e-05 -1.14201e-05  5.63990e+00
      Li  8.72707e-06  1.63813e-05  1.85842e+01
      Li  4.79493e+00  2.76839e+00  1.42694e+01
      Li  4.79494e+00  2.76835e+00  1.32506e+00
      Li  8.84271e-06  5.53672e+00  2.28990e+01
      Li  6.36170e-06  5.53670e+00  9.95471e+00
       O -1.24954e+00  2.65900e+00  2.66594e+00
       O  3.11694e+00  5.89343e+00  2.66593e+00
       O -1.86740e+00  8.05770e+00  2.66593e+00
       O  1.86741e+00  8.05773e+00  1.56103e+01
       O  1.24954e+00  2.65902e+00  1.56103e+01
       O -3.11695e+00  5.89346e+00  1.56103e+01
       O  3.54539e+00  5.42735e+00  1.12955e+01
       O  3.11695e+00  3.56705e-01  1.12955e+01
       O  7.72248e+00  2.52100e+00  1.12955e+01
       O  1.86741e+00  2.52099e+00  2.42400e+01
       O  6.04450e+00  5.42738e+00  2.42400e+01
       O  6.47296e+00  3.56725e-01  2.42400e+01
       O -1.24952e+00  8.19574e+00  1.99251e+01
       O -1.67798e+00  3.12510e+00  1.99251e+01
       O  2.92755e+00  5.28936e+00  1.99251e+01
       O -2.92756e+00  5.28933e+00  6.98072e+00
       O  1.24954e+00  8.19570e+00  6.98074e+00
       O  1.67799e+00  3.12506e+00  6.98074e+00
