30
# CELL(abcABC):    9.58988     9.58988    25.88886    90.00002    89.99998   120.00001  Step:           0  Bead:       0 positions{atomic_unit}  cell{atomic_unit}
      Nb  9.33867e-07  1.71897e-05  2.74699e-02
      Nb -2.20985e-06  4.43240e-06  1.29719e+01
      Nb  4.79494e+00  2.76835e+00  8.65710e+00
      Nb  4.79496e+00  2.76838e+00  2.16015e+01
      Nb  4.24677e-06  5.53673e+00  1.72867e+01
      Nb -1.33924e-06  5.53672e+00  4.34229e+00
      Li -1.37153e-05 -1.14201e-05  5.63990e+00
      Li  8.72707e-06  1.63813e-05  1.85842e+01
      Li  4.79493e+00  2.76839e+00  1.42694e+01
      Li  4.79494e+00  2.76835e+00  1.32506e+00
      Li  8.84271e-06  5.53672e+00  2.28990e+01
      Li  6.36170e-06  5.53670e+00  9.95471e+00
       O -1.24954e+00  2.65900e+00  2.66594e+00
       O  3.11694e+00  5.89343e+00  2.66593e+00
       O -1.86740e+00  8.05770e+00  2.66593e+00
       O  1.86741e+00  8.05773e+00  1.56103e+01
       O  1.24954e+00  2.65902e+00  1.56103e+01
       O -3.11695e+00  5.89346e+00  1.56103e+01
       O  3.54539e+00  5.42735e+00  1.12955e+01
       O  3.11695e+00  3.56705e-01  1.12955e+01
       O  7.72248e+00  2.52100e+00  1.12955e+01
       O  1.86741e+00  2.52099e+00  2.42400e+01
       O  6.04450e+00  5.42738e+00  2.42400e+01
       O  6.47296e+00  3.56725e-01  2.42400e+01
       O -1.24952e+00  8.19574e+00  1.99251e+01
       O -1.67798e+00  3.12510e+00  1.99251e+01
       O  2.92755e+00  5.28936e+00  1.99251e+01
       O -2.92756e+00  5.28933e+00  6.98072e+00
       O  1.24954e+00  8.19570e+00  6.98074e+00
       O  1.67799e+00  3.12506e+00  6.98074e+00
30
# CELL(abcABC):    9.58988     9.58988    25.88886    90.00002    89.99998   120.00001  Step:           1  Bead:       0 positions{atomic_unit}  cell{atomic_unit}
      Nb  1.08366e-03  8.46124e-03  1.70217e-02
      Nb -3.47769e-03  6.75153e-03  1.29662e+01
      Nb  4.80367e+00  2.77729e+00  8.65036e+00
      Nb  4.79934e+00  2.76506e+00  2.15983e+01
      Nb  1.09898e-03  5.53554e+00  1.72837e+01
      Nb  7.82810e-03  5.54388e+00  4.34689e+00
      Li  1.36704e-02 -6.69571e-02  5.66809e+00
      Li -2.15378e-02 -2.15482e-02  1.85687e+01
      Li  4.84133e+00  2.73216e+00  1.43061e+01
      Li  4.80300e+00  2.80399e+00  1.37170e+00
      Li -1.29713e-02  5.50045e+00  2.28901e+01
      Li  7.96938e-03  5.50811e+00  9.95443e+00
       O -1.22334e+00  2.65160e+00  2.67339e+00
       O  3.10040e+00  5.87943e+00  2.69793e+00
       O -1.86717e+00  8.03124e+00  2.67158e+00
       O  1.85446e+00  8.03991e+00  1.56102e+01
       O  1.24843e+00  2.68568e+00  1.56159e+01
       O -3.13619e+00  5.89585e+00  1.55922e+01
       O  3.53754e+00  5.47000e+00  1.13114e+01
       O  3.10727e+00  3.62860e-01  1.13056e+01
       O  7.72262e+00  2.51570e+00  1.12974e+01
       O  1.85520e+00  2.52432e+00  2.42481e+01
       O  6.00872e+00  5.41379e+00  2.42545e+01
       O  6.47791e+00  3.33006e-01  2.42532e+01
       O -1.25846e+00  8.16649e+00  1.99568e+01
       O -1.69285e+00  3.13425e+00  1.99058e+01
       O  2.92263e+00  5.28990e+00  1.99024e+01
       O -2.91121e+00  5.26186e+00  6.96973e+00
       O  1.23235e+00  8.17478e+00  6.98082e+00
       O  1.65927e+00  3.13132e+00  7.01112e+00
30
# CELL(abcABC):    9.58988     9.58988    25.88886    90.00002    89.99998   120.00001  Step:           2  Bead:       0 positions{atomic_unit}  cell{atomic_unit}
      Nb  1.02264e-03  1.81327e-02  6.99089e-04
      Nb -5.26716e-03  1.53895e-02  1.29710e+01
      Nb  4.81197e+00  2.77743e+00  8.64174e+00
      Nb  4.80831e+00  2.76255e+00  2.15941e+01
      Nb  1.45014e-03  5.54009e+00  1.72778e+01
      Nb  1.47852e-02  5.55793e+00  4.35074e+00
      Li  6.05103e-02 -1.41731e-01  5.69823e+00
      Li -6.75306e-02 -4.46718e-02  1.85875e+01
      Li  4.90240e+00  2.68239e+00  1.43126e+01
      Li  4.79551e+00  2.80182e+00  1.42045e+00
      Li -2.03099e-02  5.46502e+00  2.29170e+01
      Li -1.01380e-03  5.44438e+00  9.97702e+00
       O -1.17824e+00  2.63151e+00  2.66693e+00
       O  3.09488e+00  5.88594e+00  2.72581e+00
       O -1.86725e+00  8.00449e+00  2.68999e+00
       O  1.85600e+00  8.05678e+00  1.56019e+01
       O  1.21904e+00  2.69156e+00  1.56305e+01
       O -3.15798e+00  5.89265e+00  1.56174e+01
       O  3.52962e+00  5.49795e+00  1.13264e+01
       O  3.09954e+00  3.64451e-01  1.13190e+01
       O  7.72338e+00  2.51540e+00  1.13022e+01
       O  1.81459e+00  2.53437e+00  2.42557e+01
       O  5.98866e+00  5.38959e+00  2.42603e+01
       O  6.48747e+00  2.87323e-01  2.42454e+01
       O -1.26837e+00  8.15724e+00  1.99725e+01
       O -1.72291e+00  3.14095e+00  1.98876e+01
       O  2.90429e+00  5.28772e+00  1.98850e+01
       O -2.91950e+00  5.24088e+00  6.95007e+00
       O  1.21369e+00  8.14620e+00  6.97013e+00
       O  1.67213e+00  3.14453e+00  7.03763e+00
30
# CELL(abcABC):    9.58988     9.58988    25.88886    90.00002    89.99998   120.00001  Step:           3  Bead:       0 positions{atomic_unit}  cell{atomic_unit}
      Nb -9.11032e-03  2.30768e-02 -6.15003e-03
      Nb -5.64260e-03  1.51855e-02  1.29617e+01
      Nb  4.82459e+00  2.78495e+00  8.64373e+00
      Nb  4.81847e+00  2.75478e+00  2.15937e+01
      Nb  4.65852e-03  5.54404e+00  1.72807e+01
      Nb  3.13268e-02  5.56973e+00  4.36209e+00
      Li  8.70511e-02 -2.05710e-01  5.70472e+00
      Li -1.44009e-01 -5.11358e-02  1.85799e+01
      Li  4.89822e+00  2.69284e+00  1.43173e+01
      Li  4.79859e+00  2.84187e+00  1.43808e+00
      Li -3.27750e-02  5.43185e+00  2.29201e+01
      Li  2.70870e-02  5.41128e+00  9.96838e+00
       O -1.16174e+00  2.63291e+00  2.64969e+00
       O  3.06025e+00  5.87882e+00  2.77971e+00
       O -1.86458e+00  8.00051e+00  2.69675e+00
       O  1.85486e+00  8.04548e+00  1.55819e+01
       O  1.18974e+00  2.70712e+00  1.56104e+01
       O -3.15042e+00  5.88753e+00  1.56200e+01
       O  3.53343e+00  5.50436e+00  1.13432e+01
       O  3.08410e+00  3.68421e-01  1.13292e+01
       O  7.69671e+00  2.52029e+00  1.13176e+01
       O  1.78002e+00  2.53588e+00  2.42496e+01
       O  5.94603e+00  5.37858e+00  2.42409e+01
       O  6.48412e+00  2.47182e-01  2.42238e+01
       O -1.27344e+00  8.15961e+00  1.99995e+01
       O -1.74174e+00  3.15997e+00  1.98659e+01
       O  2.91628e+00  5.27836e+00  1.98485e+01
       O -2.91307e+00  5.21127e+00  6.92097e+00
       O  1.19203e+00  8.11547e+00  6.98735e+00
       O  1.68593e+00  3.15759e+00  7.07426e+00
30
# CELL(abcABC):    9.58988     9.58988    25.88886    90.00002    89.99998   120.00001  Step:           4  Bead:       0 positions{atomic_unit}  cell{atomic_unit}
      Nb -1.55044e-02  2.37062e-02 -2.54200e-03
      Nb -8.84301e-03  1.89815e-02  1.29570e+01
      Nb  4.83237e+00  2.78798e+00  8.64010e+00
      Nb  4.82540e+00  2.75433e+00  2.15941e+01
      Nb  1.54870e-02  5.53988e+00  1.72738e+01
      Nb  3.95844e-02  5.58267e+00  4.36628e+00
      Li  8.37001e-02 -2.69473e-01  5.69525e+00
      Li -2.14950e-01 -4.80041e-02  1.85850e+01
      Li  4.89397e+00  2.69758e+00  1.43027e+01
      Li  4.81955e+00  2.92852e+00  1.44652e+00
      Li -2.04914e-02  5.38894e+00  2.29021e+01
      Li  7.20516e-03  5.42267e+00  9.96626e+00
       O -1.15492e+00  2.61341e+00  2.61912e+00
       O  3.02648e+00  5.87796e+00  2.83161e+00
       O -1.86034e+00  8.01844e+00  2.73134e+00
       O  1.85518e+00  8.03749e+00  1.55987e+01
       O  1.14971e+00  2.70706e+00  1.56116e+01
       O -3.15991e+00  5.86765e+00  1.56309e+01
       O  3.54546e+00  5.50610e+00  1.13355e+01
       O  3.07733e+00  3.81992e-01  1.13174e+01
       O  7.67800e+00  2.52132e+00  1.13356e+01
       O  1.76520e+00  2.55071e+00  2.42489e+01
       O  5.91540e+00  5.38652e+00  2.42345e+01
       O  6.51005e+00  2.26763e-01  2.42112e+01
       O -1.27268e+00  8.18115e+00  2.00190e+01
       O -1.75191e+00  3.13708e+00  1.98387e+01
       O  2.91788e+00  5.26597e+00  1.98238e+01
       O -2.91779e+00  5.18458e+00  6.90516e+00
       O  1.18202e+00  8.07844e+00  7.00772e+00
       O  1.70108e+00  3.15540e+00  7.09230e+00
30
# CELL(abcABC):    9.58988     9.58988    25.88886    90.00002    89.99998   120.00001  Step:           5  Bead:       0 positions{atomic_unit}  cell{atomic_unit}
      Nb -1.63850e-02  3.63416e-02 -1.09479e-03
      Nb -1.51772e-02  2.02031e-02  1.29546e+01
      Nb  4.83567e+00  2.79408e+00  8.63631e+00
      Nb  4.81913e+00  2.74712e+00  2.15999e+01
      Nb  2.52826e-02  5.53723e+00  1.72654e+01
      Nb  5.59155e-02  5.58917e+00  4.37304e+00
      Li  1.36854e-01 -3.08851e-01  5.68723e+00
      Li -2.91838e-01 -6.20021e-02  1.85996e+01
      Li  4.91501e+00  2.68324e+00  1.43115e+01
      Li  4.79427e+00  2.96976e+00  1.46336e+00
      Li  2.27818e-03  5.37994e+00  2.29148e+01
      Li -1.44952e-02  5.41134e+00  9.97073e+00
       O -1.12280e+00  2.62764e+00  2.62173e+00
       O  3.00224e+00  5.88091e+00  2.84814e+00
       O -1.83806e+00  7.99137e+00  2.72760e+00
       O  1.83127e+00  8.04211e+00  1.56087e+01
       O  1.10101e+00  2.69344e+00  1.56143e+01
       O -3.18208e+00  5.85465e+00  1.56260e+01
       O  3.55287e+00  5.52334e+00  1.13483e+01
       O  3.07645e+00  3.81583e-01  1.13039e+01
       O  7.65366e+00  2.53010e+00  1.13506e+01
       O  1.74998e+00  2.53551e+00  2.42532e+01
       O  5.89698e+00  5.38690e+00  2.42347e+01
       O  6.54309e+00  2.10981e-01  2.41986e+01
       O -1.27745e+00  8.19308e+00  2.00202e+01
       O -1.76367e+00  3.13033e+00  1.97908e+01
       O  2.94388e+00  5.26315e+00  1.98024e+01
       O -2.90893e+00  5.18267e+00  6.88436e+00
       O  1.16564e+00  8.04665e+00  7.02830e+00
       O  1.70124e+00  3.14760e+00  7.11351e+00
30
# CELL(abcABC):    9.58988     9.58988    25.88886    90.00002    89.99998   120.00001  Step:           6  Bead:       0 positions{atomic_unit}  cell{atomic_unit}
      Nb -1.48520e-02  4.53475e-02 -2.17485e-02
      Nb -1.51596e-02  3.15299e-02  1.29625e+01
      Nb  4.83643e+00  2.80282e+00  8.63674e+00
      Nb  4.81495e+00  2.73458e+00  2.16086e+01
      Nb  2.69099e-02  5.53271e+00  1.72541e+01
      Nb  7.50318e-02  5.59271e+00  4.37308e+00
      Li  1.37025e-01 -3.67648e-01  5.70898e+00
      Li -3.35604e-01 -1.06729e-01  1.85953e+01
      Li  4.94345e+00  2.65089e+00  1.42856e+01
      Li  4.81114e+00  3.02779e+00  1.51155e+00
      Li  3.32348e-03  5.34383e+00  2.29206e+01
      Li -3.20384e-02  5.41926e+00  9.99462e+00
       O -1.12541e+00  2.62218e+00  2.61243e+00
       O  2.96757e+00  5.89287e+00  2.89079e+00
       O -1.80134e+00  8.00252e+00  2.75913e+00
       O  1.80867e+00  8.03100e+00  1.56083e+01
       O  1.04402e+00  2.69894e+00  1.56086e+01
       O -3.22910e+00  5.83065e+00  1.56255e+01
       O  3.56537e+00  5.54471e+00  1.13545e+01
       O  3.05502e+00  4.03488e-01  1.13001e+01
       O  7.63486e+00  2.53526e+00  1.13666e+01
       O  1.73398e+00  2.52364e+00  2.42404e+01
       O  5.89150e+00  5.37663e+00  2.42375e+01
       O  6.56488e+00  1.86214e-01  2.41907e+01
       O -1.27306e+00  8.18418e+00  2.00195e+01
       O -1.76711e+00  3.14307e+00  1.97763e+01
       O  2.97425e+00  5.28986e+00  1.97961e+01
       O -2.87869e+00  5.16123e+00  6.87140e+00
       O  1.15661e+00  7.99667e+00  7.02924e+00
       O  1.70012e+00  3.15453e+00  7.14470e+00
30
# CELL(abcABC):    9.58988     9.58988    25.88886    90.00002    89.99998   120.00001  Step:           7  Bead:       0 positions{atomic_unit}  cell{atomic_unit}
      Nb -4.48426e-03  4.36799e-02 -3.30903e-02
      Nb -1.71345e-02  3.68650e-02  1.29505e+01
      Nb  4.83625e+00  2.80544e+00  8.64412e+00
      Nb  4.80644e+00  2.72420e+00  2.16021e+01
      Nb  3.02698e-02  5.53138e+00  1.72490e+01
      Nb  9.80323e-02  5.60693e+00  4.37553e+00
      Li  1.65856e-01 -4.25989e-01  5.72047e+00
      Li -4.00775e-01 -1.50555e-01  1.85774e+01
      Li  4.96877e+00  2.64497e+00  1.43404e+01
      Li  4.83970e+00  3.05638e+00  1.52958e+00
      Li  3.67009e-02  5.35075e+00  2.29300e+01
      Li -8.10863e-02  5.42444e+00  9.97705e+00
       O -1.07328e+00  2.63241e+00  2.61672e+00
       O  2.93117e+00  5.90314e+00  2.91697e+00
       O -1.80195e+00  8.00072e+00  2.75833e+00
       O  1.77151e+00  8.01632e+00  1.56353e+01
       O  1.00692e+00  2.69157e+00  1.56246e+01
       O -3.27153e+00  5.83316e+00  1.56249e+01
       O  3.59598e+00  5.54596e+00  1.13708e+01
       O  3.04792e+00  4.09042e-01  1.13172e+01
       O  7.59907e+00  2.55419e+00  1.13770e+01
       O  1.70604e+00  2.50484e+00  2.42431e+01
       O  5.89689e+00  5.37217e+00  2.42280e+01
       O  6.56871e+00  1.67116e-01  2.41978e+01
       O -1.26935e+00  8.18695e+00  2.00209e+01
       O -1.79467e+00  3.14074e+00  1.97676e+01
       O  2.97553e+00  5.29268e+00  1.97929e+01
       O -2.86772e+00  5.17752e+00  6.84367e+00
       O  1.15649e+00  7.94980e+00  7.02926e+00
       O  1.69225e+00  3.17737e+00  7.18726e+00
30
# CELL(abcABC):    9.58988     9.58988    25.88886    90.00002    89.99998   120.00001  Step:           8  Bead:       0 positions{atomic_unit}  cell{atomic_unit}
      Nb -6.15211e-03  5.26883e-02 -5.08369e-02
      Nb -1.69282e-02  5.23917e-02  1.29495e+01
      Nb  4.85156e+00  2.80333e+00  8.65212e+00
      Nb  4.79191e+00  2.72200e+00  2.15961e+01
      Nb  2.64657e-02  5.52777e+00  1.72409e+01
      Nb  1.20885e-01  5.60822e+00  4.37463e+00
      Li  2.09385e-01 -4.55852e-01  5.75395e+00
      Li -4.56770e-01 -1.81646e-01  1.86241e+01
      Li  5.00413e+00  2.62528e+00  1.43277e+01
      Li  4.80937e+00  3.07426e+00  1.57093e+00
      Li  4.83386e-02  5.32955e+00  2.29688e+01
      Li -1.06131e-01  5.44447e+00  9.97258e+00
       O -1.05748e+00  2.62762e+00  2.63344e+00
       O  2.91154e+00  5.89831e+00  2.92638e+00
       O -1.79975e+00  7.96243e+00  2.77650e+00
       O  1.76130e+00  8.01867e+00  1.56529e+01
       O  9.79287e-01  2.68821e+00  1.56301e+01
       O -3.28587e+00  5.82667e+00  1.56481e+01
       O  3.60772e+00  5.56117e+00  1.13630e+01
       O  3.04506e+00  4.32827e-01  1.13079e+01
       O  7.59242e+00  2.58025e+00  1.13707e+01
       O  1.66045e+00  2.48536e+00  2.42612e+01
       O  5.90083e+00  5.37355e+00  2.42290e+01
       O  6.60886e+00  1.42740e-01  2.41709e+01
       O -1.26359e+00  8.20957e+00  2.00167e+01
       O -1.81391e+00  3.14557e+00  1.97368e+01
       O  2.95659e+00  5.27921e+00  1.97919e+01
       O -2.86345e+00  5.16981e+00  6.84785e+00
       O  1.14703e+00  7.91931e+00  7.04259e+00
       O  1.68532e+00  3.15822e+00  7.23400e+00
30
# CELL(abcABC):    9.58988     9.58988    25.88886    90.00002    89.99998   120.00001  Step:           9  Bead:       0 positions{atomic_unit}  cell{atomic_unit}
      Nb -1.64423e-03  6.64578e-02 -5.78999e-02
      Nb -2.82370e-02  7.09190e-02  1.29426e+01
      Nb  4.86342e+00  2.79810e+00  8.65418e+00
      Nb  4.79062e+00  2.72344e+00  2.15967e+01
      Nb  3.06264e-02  5.52890e+00  1.72300e+01
      Nb  1.40785e-01  5.60697e+00  4.37476e+00
      Li  2.61298e-01 -5.22064e-01  5.79508e+00
      Li -5.05953e-01 -2.22422e-01  1.86622e+01
      Li  5.00265e+00  2.62067e+00  1.43690e+01
      Li  4.81814e+00  3.09203e+00  1.60694e+00
      Li  9.15607e-02  5.29784e+00  2.29764e+01
      Li -1.22346e-01  5.47930e+00  9.95904e+00
       O -1.04188e+00  2.63772e+00  2.61173e+00
       O  2.88654e+00  5.89481e+00  2.95749e+00
       O -1.77371e+00  7.95665e+00  2.77193e+00
       O  1.76772e+00  8.02683e+00  1.56738e+01
       O  9.24765e-01  2.68079e+00  1.56404e+01
       O -3.30212e+00  5.79662e+00  1.56310e+01
       O  3.61904e+00  5.55406e+00  1.13682e+01
       O  3.03305e+00  4.49220e-01  1.12904e+01
       O  7.57282e+00  2.59568e+00  1.13834e+01
       O  1.62533e+00  2.46363e+00  2.42850e+01
       O  5.90707e+00  5.34884e+00  2.42214e+01
       O  6.62743e+00  1.34360e-01  2.41686e+01
       O -1.28102e+00  8.21754e+00  2.00502e+01
       O -1.84939e+00  3.14884e+00  1.97223e+01
       O  2.93963e+00  5.26246e+00  1.97701e+01
       O -2.86223e+00  5.15008e+00  6.85767e+00
       O  1.12027e+00  7.88525e+00  7.03437e+00
       O  1.68137e+00  3.15066e+00  7.26417e+00
30
# CELL(abcABC):    9.58988     9.58988    25.88886    90.00002    89.99998   120.00001  Step:          10  Bead:       0 positions{atomic_unit}  cell{atomic_unit}
      Nb  2.12518e-03  7.76083e-02 -6.70118e-02
      Nb -3.36743e-02  7.63288e-02  1.29448e+01
      Nb  4.87265e+00  2.79930e+00  8.65714e+00
      Nb  4.78626e+00  2.72010e+00  2.15920e+01
      Nb  2.84520e-02  5.52539e+00  1.72185e+01
      Nb  1.67089e-01  5.61795e+00  4.37793e+00
      Li  2.85103e-01 -5.41921e-01  5.79718e+00
      Li -5.73898e-01 -2.33236e-01  1.86859e+01
      Li  4.99962e+00  2.59340e+00  1.44152e+01
      Li  4.84433e+00  3.09334e+00  1.65333e+00
      Li  9.90670e-02  5.25667e+00  2.29669e+01
      Li -1.52467e-01  5.46868e+00  9.95758e+00
       O -1.04004e+00  2.65624e+00  2.62035e+00
       O  2.86752e+00  5.89540e+00  2.99534e+00
       O -1.76821e+00  7.96451e+00  2.79392e+00
       O  1.77031e+00  8.00816e+00  1.56877e+01
       O  8.64178e-01  2.68607e+00  1.56640e+01
       O -3.34719e+00  5.78367e+00  1.56257e+01
       O  3.64323e+00  5.55702e+00  1.13884e+01
       O  3.03515e+00  4.36750e-01  1.12702e+01
       O  7.56901e+00  2.59829e+00  1.13750e+01
       O  1.60384e+00  2.45199e+00  2.42891e+01
       O  5.91822e+00  5.31201e+00  2.42165e+01
       O  6.64057e+00  1.09468e-01  2.41507e+01
       O -1.28032e+00  8.22470e+00  2.00571e+01
       O -1.87434e+00  3.18823e+00  1.96938e+01
       O  2.93314e+00  5.25471e+00  1.97468e+01
       O -2.86196e+00  5.14718e+00  6.84371e+00
       O  1.10686e+00  7.83305e+00  7.03081e+00
       O  1.67496e+00  3.16654e+00  7.30509e+00
30
# CELL(abcABC):    9.58988     9.58988    25.88886    90.00002    89.99998   120.00001  Step:          11  Bead:       0 positions{atomic_unit}  cell{atomic_unit}
      Nb  2.62858e-03  9.27074e-02 -7.27309e-02
      Nb -3.89830e-02  8.22223e-02  1.29442e+01
      Nb  4.87755e+00  2.79182e+00  8.66227e+00
      Nb  4.76980e+00  2.71454e+00  2.15912e+01
      Nb  2.61874e-02  5.53084e+00  1.72010e+01
      Nb  1.85288e-01  5.62764e+00  4.37999e+00
      Li  2.69990e-01 -5.67917e-01  5.80627e+00
      Li -6.48519e-01 -2.58393e-01  1.87281e+01
      Li  5.02873e+00  2.59804e+00  1.44566e+01
      Li  4.89722e+00  3.08381e+00  1.70378e+00
      Li  1.01102e-01  5.20682e+00  2.29286e+01
      Li -1.72774e-01  5.46844e+00  9.93319e+00
       O -1.05156e+00  2.65468e+00  2.64646e+00
       O  2.84209e+00  5.90327e+00  3.02376e+00
       O -1.74876e+00  7.96101e+00  2.80344e+00
       O  1.81088e+00  8.02727e+00  1.56983e+01
       O  8.40706e-01  2.68738e+00  1.56822e+01
       O -3.39209e+00  5.74286e+00  1.56340e+01
       O  3.66824e+00  5.58407e+00  1.13852e+01
       O  3.04401e+00  4.32983e-01  1.12726e+01
       O  7.58034e+00  2.60081e+00  1.13748e+01
       O  1.59254e+00  2.44004e+00  2.42939e+01
       O  5.93470e+00  5.27341e+00  2.42277e+01
       O  6.65603e+00  1.02946e-01  2.41415e+01
       O -1.26484e+00  8.21805e+00  2.00542e+01
       O -1.89947e+00  3.20518e+00  1.96542e+01
       O  2.92748e+00  5.26099e+00  1.97316e+01
       O -2.85290e+00  5.14491e+00  6.83892e+00
       O  1.10139e+00  7.79964e+00  7.02263e+00
       O  1.67988e+00  3.14643e+00  7.33501e+00
30
# CELL(abcABC):    9.58988     9.58988    25.88886    90.00002    89.99998   120.00001  Step:          12  Bead:       0 positions{atomic_unit}  cell{atomic_unit}
      Nb  6.11583e-03  9.35170e-02 -8.00928e-02
      Nb -5.01579e-02  8.93910e-02  1.29435e+01
      Nb  4.89158e+00  2.79649e+00  8.67214e+00
      Nb  4.75827e+00  2.71599e+00  2.15920e+01
      Nb  1.87256e-02  5.53278e+00  1.71860e+01
      Nb  1.92341e-01  5.63017e+00  4.38087e+00
      Li  2.80531e-01 -5.93545e-01  5.81841e+00
      Li -7.21234e-01 -2.84942e-01  1.87313e+01
      Li  5.05386e+00  2.57991e+00  1.45022e+01
      Li  4.92570e+00  3.09874e+00  1.70274e+00
      Li  1.08259e-01  5.16489e+00  2.29253e+01
      Li -2.02359e-01  5.48390e+00  9.91467e+00
       O -1.03280e+00  2.65073e+00  2.64619e+00
       O  2.82187e+00  5.90036e+00  3.03180e+00
       O -1.73683e+00  7.94274e+00  2.81527e+00
       O  1.84108e+00  8.03823e+00  1.57065e+01
       O  8.49060e-01  2.67628e+00  1.57101e+01
       O -3.42846e+00  5.74035e+00  1.56370e+01
       O  3.68396e+00  5.57914e+00  1.13830e+01
       O  3.03330e+00  4.25448e-01  1.12664e+01
       O  7.58645e+00  2.62812e+00  1.13692e+01
       O  1.54948e+00  2.40859e+00  2.43077e+01
       O  5.93852e+00  5.25281e+00  2.42257e+01
       O  6.70307e+00  8.78754e-02  2.41188e+01
       O -1.25080e+00  8.24282e+00  2.00545e+01
       O -1.90325e+00  3.23129e+00  1.96465e+01
       O  2.93907e+00  5.26383e+00  1.97287e+01
       O -2.85364e+00  5.12598e+00  6.83029e+00
       O  1.09690e+00  7.76298e+00  7.02391e+00
       O  1.67766e+00  3.15608e+00  7.36986e+00
30
# CELL(abcABC):    9.58988     9.58988    25.88886    90.00002    89.99998   120.00001  Step:          13  Bead:       0 positions{atomic_unit}  cell{atomic_unit}
      Nb  2.52881e-04  1.00738e-01 -8.34888e-02
      Nb -5.87389e-02  8.57254e-02  1.29519e+01
      Nb  4.89505e+00  2.80531e+00  8.66841e+00
      Nb  4.74841e+00  2.71044e+00  2.15953e+01
      Nb  1.68382e-02  5.53373e+00  1.71686e+01
      Nb  2.05431e-01  5.64015e+00  4.37801e+00
      Li  2.84550e-01 -6.86428e-01  5.85608e+00
      Li -7.87514e-01 -2.84415e-01  1.87827e+01
      Li  5.08930e+00  2.57215e+00  1.45229e+01
      Li  4.91426e+00  3.13361e+00  1.72613e+00
      Li  1.71704e-01  5.09126e+00  2.29188e+01
      Li -2.05084e-01  5.50968e+00  9.93626e+00
       O -1.00418e+00  2.63717e+00  2.65658e+00
       O  2.83824e+00  5.90498e+00  3.05411e+00
       O -1.71140e+00  7.93015e+00  2.82947e+00
       O  1.89705e+00  8.06329e+00  1.57043e+01
       O  8.54325e-01  2.67306e+00  1.57234e+01
       O -3.49001e+00  5.71169e+00  1.56579e+01
       O  3.69645e+00  5.57801e+00  1.14107e+01
       O  3.03345e+00  4.07944e-01  1.12575e+01
       O  7.59514e+00  2.64599e+00  1.13648e+01
       O  1.50341e+00  2.37952e+00  2.42923e+01
       O  5.91392e+00  5.24521e+00  2.42140e+01
       O  6.72417e+00  7.20307e-02  2.41029e+01
       O -1.22454e+00  8.25617e+00  2.00788e+01
       O -1.92296e+00  3.26719e+00  1.96061e+01
       O  2.92263e+00  5.25418e+00  1.97230e+01
       O -2.84458e+00  5.11767e+00  6.80930e+00
       O  1.08817e+00  7.73689e+00  7.03233e+00
       O  1.69157e+00  3.17845e+00  7.38024e+00
30
# CELL(abcABC):    9.58988     9.58988    25.88886    90.00002    89.99998   120.00001  Step:          14  Bead:       0 positions{atomic_unit}  cell{atomic_unit}
      Nb  5.19249e-03  1.08011e-01 -8.42674e-02
      Nb -6.60981e-02  8.32853e-02  1.29479e+01
      Nb  4.90121e+00  2.80524e+00  8.67046e+00
      Nb  4.74127e+00  2.70693e+00  2.15945e+01
      Nb  1.01673e-02  5.53469e+00  1.71580e+01
      Nb  2.19913e-01  5.64349e+00  4.37518e+00
      Li  2.70068e-01 -7.39959e-01  5.87178e+00
      Li -8.44538e-01 -3.22797e-01  1.88236e+01
      Li  5.14241e+00  2.56214e+00  1.45545e+01
      Li  4.93523e+00  3.14741e+00  1.75651e+00
      Li  2.07999e-01  5.00954e+00  2.29058e+01
      Li -2.29010e-01  5.52058e+00  9.90916e+00
       O -9.92716e-01  2.65201e+00  2.64375e+00
       O  2.82767e+00  5.91770e+00  3.08013e+00
       O -1.68060e+00  7.93910e+00  2.85675e+00
       O  1.91998e+00  8.08634e+00  1.57087e+01
       O  8.38900e-01  2.68264e+00  1.57348e+01
       O -3.52966e+00  5.70283e+00  1.56793e+01
       O  3.69319e+00  5.58798e+00  1.14164e+01
       O  3.01567e+00  4.11638e-01  1.12558e+01
       O  7.58571e+00  2.66692e+00  1.13747e+01
       O  1.45411e+00  2.36117e+00  2.42922e+01
       O  5.91746e+00  5.24237e+00  2.42087e+01
       O  6.75586e+00  8.53657e-02  2.40894e+01
       O -1.21293e+00  8.25576e+00  2.00992e+01
       O -1.94171e+00  3.28332e+00  1.95789e+01
       O  2.93120e+00  5.23731e+00  1.97246e+01
       O -2.85236e+00  5.07595e+00  6.80403e+00
       O  1.06765e+00  7.71736e+00  7.01779e+00
       O  1.73128e+00  3.19051e+00  7.39726e+00
30
# CELL(abcABC):    9.58988     9.58988    25.88886    90.00002    89.99998   120.00001  Step:          15  Bead:       0 positions{atomic_unit}  cell{atomic_unit}
      Nb  1.04202e-02  1.15429e-01 -9.48070e-02
      Nb -6.32696e-02  7.95118e-02  1.29501e+01
      Nb  4.90247e+00  2.80526e+00  8.66870e+00
      Nb  4.72719e+00  2.69265e+00  2.16009e+01
      Nb -1.39006e-03  5.53359e+00  1.71491e+01
      Nb  2.46537e-01  5.65044e+00  4.38101e+00
      Li  2.74424e-01 -8.09148e-01  5.88203e+00
      Li -9.04931e-01 -4.17049e-01  1.88318e+01
      Li  5.16516e+00  2.53975e+00  1.45777e+01
      Li  4.97197e+00  3.18855e+00  1.80720e+00
      Li  2.22880e-01  4.98747e+00  2.28633e+01
      Li -2.41515e-01  5.55206e+00  9.94264e+00
       O -1.01407e+00  2.67422e+00  2.63133e+00
       O  2.82180e+00  5.94653e+00  3.09854e+00
       O -1.64815e+00  7.92880e+00  2.88709e+00
       O  1.93493e+00  8.10221e+00  1.56845e+01
       O  8.40386e-01  2.71074e+00  1.57269e+01
       O -3.56795e+00  5.68758e+00  1.56839e+01
       O  3.69201e+00  5.62967e+00  1.13835e+01
       O  3.02203e+00  4.19690e-01  1.12653e+01
       O  7.57890e+00  2.68621e+00  1.13593e+01
       O  1.42030e+00  2.33548e+00  2.43057e+01
       O  5.91936e+00  5.27096e+00  2.42284e+01
       O  6.77336e+00  6.57159e-02  2.40730e+01
       O -1.21280e+00  8.26483e+00  2.01155e+01
       O -1.94124e+00  3.30183e+00  1.95581e+01
       O  2.92782e+00  5.22819e+00  1.97261e+01
       O -2.86937e+00  5.05347e+00  6.81204e+00
       O  1.05035e+00  7.68649e+00  7.02173e+00
       O  1.73864e+00  3.19006e+00  7.40453e+00
30
# CELL(abcABC):    9.58988     9.58988    25.88886    90.00002    89.99998   120.00001  Step:          16  Bead:       0 positions{atomic_unit}  cell{atomic_unit}
      Nb  8.19827e-03  1.29255e-01 -9.91480e-02
      Nb -6.77308e-02  8.22092e-02  1.29610e+01
      Nb  4.91084e+00  2.80067e+00  8.65605e+00
      Nb  4.72883e+00  2.67754e+00  2.15966e+01
      Nb  2.61838e-03  5.54181e+00  1.71333e+01
      Nb  2.65806e-01  5.64892e+00  4.38810e+00
      Li  2.73493e-01 -8.78506e-01  5.87953e+00
      Li -9.54797e-01 -4.28175e-01  1.88899e+01
      Li  5.18595e+00  2.53462e+00  1.45385e+01
      Li  4.95725e+00  3.25947e+00  1.84403e+00
      Li  2.30779e-01  4.94670e+00  2.28560e+01
      Li -2.97538e-01  5.54189e+00  9.87907e+00
       O -1.03994e+00  2.68801e+00  2.65728e+00
       O  2.79823e+00  5.97122e+00  3.12122e+00
       O -1.63885e+00  7.89642e+00  2.91464e+00
       O  1.93888e+00  8.10056e+00  1.56715e+01
       O  8.15636e-01  2.72555e+00  1.57176e+01
       O -3.59966e+00  5.69562e+00  1.56784e+01
       O  3.69832e+00  5.65326e+00  1.13697e+01
       O  3.02277e+00  4.11090e-01  1.12859e+01
       O  7.56693e+00  2.70184e+00  1.13524e+01
       O  1.36580e+00  2.32715e+00  2.43197e+01
       O  5.91551e+00  5.27499e+00  2.42405e+01
       O  6.80067e+00  5.54819e-02  2.40510e+01
       O -1.20751e+00  8.29844e+00  2.01304e+01
       O -1.95436e+00  3.33297e+00  1.95406e+01
       O  2.93045e+00  5.18422e+00  1.97368e+01
       O -2.87550e+00  5.04269e+00  6.82312e+00
       O  1.05844e+00  7.63701e+00  7.02705e+00
       O  1.75630e+00  3.19413e+00  7.44637e+00
30
# CELL(abcABC):    9.58988     9.58988    25.88886    90.00002    89.99998   120.00001  Step:          17  Bead:       0 positions{atomic_unit}  cell{atomic_unit}
      Nb  6.76826e-03  1.37862e-01 -1.07430e-01
      Nb -7.55383e-02  8.63443e-02  1.29687e+01
      Nb  4.91617e+00  2.79394e+00  8.65315e+00
      Nb  4.72276e+00  2.67123e+00  2.15899e+01
      Nb -3.45920e-03  5.55201e+00  1.71297e+01
      Nb  2.85580e-01  5.63929e+00  4.39102e+00
      Li  2.99182e-01 -9.07857e-01  5.88008e+00
      Li -1.03245e+00 -4.56684e-01  1.89258e+01
      Li  5.15059e+00  2.52491e+00  1.45322e+01
      Li  4.97987e+00  3.29734e+00  1.88906e+00
      Li  2.61061e-01  4.88760e+00  2.28419e+01
      Li -2.86517e-01  5.51339e+00  9.87443e+00
       O -1.03502e+00  2.71122e+00  2.66225e+00
       O  2.78591e+00  5.99248e+00  3.15929e+00
       O -1.59381e+00  7.89567e+00  2.94869e+00
       O  1.94682e+00  8.10722e+00  1.56791e+01
       O  7.88577e-01  2.74419e+00  1.57040e+01
       O -3.61299e+00  5.68788e+00  1.56907e+01
       O  3.70877e+00  5.66056e+00  1.13557e+01
       O  3.01263e+00  4.22501e-01  1.12921e+01
       O  7.56145e+00  2.74009e+00  1.13433e+01
       O  1.34185e+00  2.30895e+00  2.43106e+01
       O  5.91679e+00  5.26183e+00  2.42328e+01
       O  6.82895e+00  3.49560e-02  2.40188e+01
       O -1.18695e+00  8.33363e+00  2.01600e+01
       O -1.97259e+00  3.33574e+00  1.95038e+01
       O  2.90307e+00  5.14912e+00  1.97249e+01
       O -2.87656e+00  5.02871e+00  6.83509e+00
       O  1.05594e+00  7.59143e+00  7.02139e+00
       O  1.76786e+00  3.23376e+00  7.47997e+00
30
# CELL(abcABC):    9.58988     9.58988    25.88886    90.00002    89.99998   120.00001  Step:          18  Bead:       0 positions{atomic_unit}  cell{atomic_unit}
      Nb  2.41120e-03  1.45283e-01 -1.05625e-01
      Nb -7.26102e-02  9.19967e-02  1.29793e+01
      Nb  4.91971e+00  2.79458e+00  8.65032e+00
      Nb  4.71089e+00  2.66335e+00  2.15870e+01
      Nb -5.18207e-03  5.56065e+00  1.71143e+01
      Nb  3.02525e-01  5.63504e+00  4.39330e+00
      Li  3.22947e-01 -9.71340e-01  5.88861e+00
      Li -1.10864e+00 -4.81161e-01  1.89407e+01
      Li  5.11675e+00  2.50039e+00  1.45281e+01
      Li  4.99838e+00  3.34769e+00  1.95428e+00
      Li  2.87903e-01  4.82523e+00  2.28451e+01
      Li -2.85613e-01  5.50577e+00  9.87573e+00
       O -1.02856e+00  2.73429e+00  2.67779e+00
       O  2.78834e+00  5.98196e+00  3.18331e+00
       O -1.58052e+00  7.87060e+00  2.97238e+00
       O  1.96608e+00  8.11779e+00  1.56835e+01
       O  8.09440e-01  2.76725e+00  1.57118e+01
       O -3.64778e+00  5.66384e+00  1.57004e+01
       O  3.72351e+00  5.67786e+00  1.13360e+01