30
# CELL(abcABC):    9.58988     9.58988    25.88886    90.00002    89.99998   120.00001  Step:           0  Bead:       0 momenta{atomic_unit}  cell{atomic_unit}
      Nb -2.13586e+01  2.31654e+01 -2.66315e+01
      Nb -1.65438e+01  5.00181e+01 -1.42051e+01
      Nb  1.28089e+01  7.03381e+00  4.18271e+00
      Nb  4.07852e+01  1.13019e+01 -3.40487e+01
      Nb -6.02675e+00 -1.76420e+01 -2.23076e+01
      Nb  3.87267e+01  3.99015e-01  2.66143e+01
      Li  6.93567e+00 -9.76522e+00  2.19669e+00
      Li -1.74027e+01 -7.41867e+00  1.06200e+01
      Li  1.68566e+01 -5.56958e+00  1.15068e+01
      Li -3.19330e+00  1.62466e+01  8.84135e+00
      Li -2.88746e+00 -7.43388e+00  6.52194e-01
      Li  3.82086e+00 -6.16537e+00  4.89323e-01
       O -1.05110e+00 -8.19864e+00  8.04869e+00
       O -1.56111e+00 -7.17227e+00  2.71210e+01
       O  1.95320e+00  9.12078e-01 -1.09403e+01
       O -5.50601e+00 -8.86059e-02  3.71521e+00
       O -6.63970e-01  2.26759e+01  9.64841e+00
       O -3.01076e+01 -8.63343e+00 -9.53925e+00
       O  6.85406e+00  2.18764e+01  6.01456e+00
       O  4.28828e-01  2.61589e+00  4.81203e+00
       O  1.51427e+00  7.07764e+00  5.87004e+00
       O -8.82329e+00 -1.77478e+01  6.43825e+00
       O -3.42583e+01 -1.74805e+01 -4.21447e+00
       O  2.01449e+01 -2.83609e+01  4.94874e+00
       O  4.33884e+00 -1.98247e+01  2.07698e-01
       O -3.04049e+01 -4.86339e-01 -1.73135e+01
       O  2.85676e+01  2.00659e+01 -2.20424e+00
       O  7.58538e+00 -1.09741e+01 -1.04958e+01
       O -7.43800e+00 -2.31032e+01 -2.88830e+00
       O -4.09419e+00  1.26764e+01  1.28608e+01
30
# CELL(abcABC):    9.58988     9.58988    25.88886    90.00002    89.99998   120.00001  Step:           1  Bead:       0 momenta{atomic_unit}  cell{atomic_unit}
      Nb -1.12721e+01  6.19746e+01 -6.22952e+01
      Nb  6.27559e+00  6.65217e-01 -7.22909e+00
      Nb  2.23055e+01  4.70572e+00 -5.14655e+01
      Nb  3.58436e+01 -1.77978e+00  1.61306e+01
      Nb -2.50470e+01  9.78800e+00  1.89456e+00
      Nb  1.75516e+01  3.27223e+00  7.39774e+00
      Li  1.26554e+01 -1.40117e+01  1.12820e+01
      Li -1.23491e+01 -3.58612e-01  5.96595e+00
      Li  1.48855e+01 -9.04177e+00 -3.82038e+00
      Li  9.68563e+00  8.88851e+00  1.95885e+01
      Li -5.01612e+00 -1.42986e+00  2.77051e+00
      Li -4.53353e+00 -6.35717e+00 -9.65567e-01
       O  1.11542e+01  9.06531e+00  5.88797e+00
       O  3.27926e+00 -1.11493e+00  3.11043e+01
       O  9.49469e+00  1.91220e+00  8.48896e+00
       O -6.88535e+00 -6.87476e+00 -3.81213e+00
       O -2.44849e+01  8.13418e+00  5.64524e+00
       O -1.98789e+01  4.83388e+00  3.49468e+00
       O  4.21040e+00 -2.77258e+00  1.37880e+01
       O -3.61992e+00 -3.32929e+00 -3.18103e+00
       O  6.68489e+00 -3.45176e+00  1.19199e+01
       O -2.58953e+01  6.25038e+00 -3.52069e-01
       O -2.02057e+01 -2.07390e+01 -9.47243e+00
       O  1.98909e+01 -1.72129e+01 -2.59893e+00
       O -4.56728e-01 -1.46270e+01  7.45680e+00
       O -2.08283e+01  5.49797e+00 -2.32070e+00
       O  5.68129e+00 -1.05934e+01 -1.03489e+01
       O -9.16211e+00 -4.87492e+00 -1.74413e+01
       O -4.45143e+00 -2.35269e+01 -4.21283e+00
       O  1.44880e+01  1.71082e+01  2.67005e+01
30
# CELL(abcABC):    9.58988     9.58988    25.88886    90.00002    89.99998   120.00001  Step:           2  Bead:       0 momenta{atomic_unit}  cell{atomic_unit}
      Nb -2.21740e+01  3.06778e+01 -4.79138e+01
      Nb -1.15157e+01  1.19631e+01 -5.46983e+00
      Nb  9.26877e+00 -1.78815e+01 -9.68740e+00
      Nb  5.69089e+01 -3.77466e+01 -2.59695e+01
      Nb  5.12477e-01  1.14194e+00  2.74345e+00
      Nb  5.65692e+01  6.42654e+01  3.90106e+01
      Li  5.80852e+00 -1.76956e+01  1.07680e+01
      Li -2.61263e+01 -6.29274e+00  6.30238e+00
      Li  1.91216e+01 -1.04801e+01 -1.53180e+00
      Li  8.44223e-01  1.25291e+01  8.46899e+00
      Li  4.93588e+00 -1.51067e+01 -2.56844e+00
      Li -6.84005e+00 -9.78173e+00  4.74184e+00
       O  1.82341e+01 -2.91117e+00 -4.31987e+00
       O -7.27636e+00  1.86244e+01  2.52910e+01
       O  2.97032e+00 -9.89112e-01  1.60878e+00
       O -7.48262e+00 -7.55831e+00 -6.18560e+00
       O -2.52370e+01  8.06557e+00 -2.08577e+00
       O -1.74506e+01 -3.77247e+00  8.09480e+00
       O  1.95344e+00  1.13068e+01  7.96403e+00
       O -1.51852e+01  3.82772e-01  9.46443e-02
       O  2.27516e+00  8.94684e+00  9.04912e-01
       O -1.82265e+01  2.35249e-01  8.03830e+00
       O -2.46524e+01 -1.74921e+01 -9.03130e+00
       O  1.68053e+01 -1.78426e+01 -1.30626e+01
       O -1.69832e+00 -1.14252e+00  8.17223e+00
       O -1.61719e+01 -6.48320e+00 -2.35914e+01
       O  1.81812e+01  1.10864e+01 -1.32142e+01
       O  4.59536e+00 -1.88388e+01 -8.75350e+00
       O -2.64774e+01 -1.05173e+01  1.33163e+01
       O  7.52983e+00  2.33073e+01  2.78648e+01
30
# CELL(abcABC):    9.58988     9.58988    25.88886    90.00002    89.99998   120.00001  Step:           3  Bead:       0 momenta{atomic_unit}  cell{atomic_unit}
      Nb -2.49539e+01  1.51714e+01 -1.31483e+01
      Nb -5.43095e+01  9.64804e+00 -2.97121e+01
      Nb  4.97592e+01  3.82556e+01 -1.39110e+01
      Nb  2.78124e+01 -4.93418e+01  9.34671e+00
      Nb  3.45791e+01  4.84186e+00 -1.82470e+01
      Nb  3.14580e+01  4.53793e+01  4.29057e+01
      Li  4.40297e+00 -6.30525e+00 -5.95747e+00
      Li -2.27803e+01 -1.06845e+01 -7.82597e-01
      Li  4.76664e+00  2.80913e+00 -2.80101e+00
      Li -5.30987e+00  2.06834e+01  7.70616e+00
      Li  5.48084e+00 -1.70207e+01 -1.03154e+00
      Li  3.10323e+00 -3.07030e+00  1.04481e+00
       O  2.66185e+01 -4.64149e+00 -2.84952e-01
       O -2.51464e+01  7.83454e+00  1.96003e+01
       O  3.04670e+01 -8.54945e+00  2.21850e+01
       O  1.44627e+00 -6.27912e-01  3.19911e+00
       O -3.18778e+01  2.16430e+00 -6.79264e+00
       O -1.45687e+01 -9.97087e+00  7.35602e+00
       O -7.10584e+00  1.09550e+01 -5.72859e+00
       O  9.52585e-02  4.66346e+00  8.39625e+00
       O -1.38599e+01  2.46289e+01 -3.55397e+00
       O -1.08475e+01 -7.47561e+00  8.17607e+00
       O -2.37897e+01  1.67522e-01  8.09428e+00
       O  1.48756e+01 -1.27519e+01 -1.46658e+01
       O -9.71740e-01 -7.20115e+00  1.94692e+01
       O -3.79305e+00 -3.73629e+00 -3.13508e+01
       O  1.48964e+01  4.73717e+00 -1.10978e+01
       O -8.60350e+00 -1.28014e+01 -2.08828e+01
       O -7.13305e+00 -3.30506e+01  8.55307e+00
       O  5.28936e+00 -4.71054e+00  1.39156e+01
30
# CELL(abcABC):    9.58988     9.58988    25.88886    90.00002    89.99998   120.00001  Step:           4  Bead:       0 momenta{atomic_unit}  cell{atomic_unit}
      Nb -1.30954e+01  2.13995e+01  2.58463e+01
      Nb  1.00827e+01  2.97809e+01 -1.77411e+01
      Nb  3.23189e+01 -2.21861e+01 -4.50918e+00
      Nb -5.72436e+00 -3.56355e+01 -3.36753e+01
      Nb  2.57200e+01  1.04890e+01 -2.16869e+01
      Nb  4.41672e+01  3.36741e+01  1.54062e+01
      Li  9.73976e+00 -1.95149e+01 -9.23897e+00
      Li -3.18111e+01 -9.50605e+00 -4.09103e+00
      Li  1.58282e+01  3.74614e-01  5.68539e-01
      Li -1.19571e+00 -1.98067e+00  3.71221e+00
      Li -5.33747e+00 -1.10431e+01  3.06424e+00
      Li -1.91927e+00 -5.39472e+00 -3.91445e+00
       O  2.04871e+01 -1.23093e+01 -1.31890e+01
       O -1.36724e+01  1.59343e+01  1.65333e+01
       O  7.01259e+00  5.15191e+00  1.38654e+01
       O -7.76979e+00  1.15953e+01  6.73051e-01
       O -2.85386e+01  4.95143e+00  1.01221e+01
       O -2.19102e+01 -1.31085e+01 -3.64288e+00
       O  5.61633e+00  3.30702e-02 -7.19997e+00
       O -1.03184e+01  1.36193e+01 -2.40671e+00
       O -1.84533e+01  2.99049e+01  1.88051e+01
       O -1.25357e+01  1.90784e+00 -6.01509e-01
       O -2.00217e+01  1.62490e+01  3.32001e+00
       O  2.33640e+01 -2.11022e+01  5.40595e+00
       O -6.03787e-01 -4.56824e+00  1.41283e+01
       O  4.80364e-02 -1.14140e+01 -2.74072e+01
       O  2.20685e+01 -4.94709e+00 -4.57584e+00
       O  4.41507e-01 -6.91233e+00 -2.19954e+00
       O -2.36953e+01 -1.91258e+01  1.02912e+01
       O -2.92334e-01  3.68321e+00  1.43377e+01
30
# CELL(abcABC):    9.58988     9.58988    25.88886    90.00002    89.99998   120.00001  Step:           5  Bead:       0 momenta{atomic_unit}  cell{atomic_unit}
      Nb -3.53845e-01  2.36325e+01 -1.87870e+01
      Nb -2.74775e+01  7.80771e+00 -1.91835e+01
      Nb  6.87391e+00  4.01701e+01 -7.17033e+00
      Nb -2.27000e+01 -1.11887e+01  4.23582e+01
      Nb  3.46951e+01 -3.32898e+01 -3.67959e+01
      Nb  1.10381e+02  3.92400e+01 -7.16698e+00
      Li -3.65859e-01 -2.22954e+00 -1.70561e+00
      Li -1.01791e+01 -8.04373e+00 -1.67572e+00
      Li  9.74614e+00  4.29606e+00 -8.40037e+00
      Li  5.20471e+00  3.99086e-01  4.17007e+00
      Li  4.12232e-01 -6.59664e+00  1.00697e+01
      Li  2.07831e+00 -1.08826e+01  2.96623e-01
       O  6.93723e+00 -1.82719e+00 -2.69687e+00
       O -1.46838e+01  7.84864e+00  2.98647e+01
       O  1.51534e+01 -6.62149e-01  2.43894e+00
       O -1.80379e+01 -1.34903e+01  5.49980e+00
       O -3.70610e+01  7.20260e+00  1.20422e+01
       O -2.22407e+01 -2.36349e+01 -2.78650e+00
       O  7.08616e+00  9.61282e+00  3.81289e+00
       O -4.52071e+00  7.87477e+00  4.07569e+00
       O -1.15136e+01  1.01493e+01  1.52408e+01
       O -1.75428e+01  1.18927e+01  1.90748e+00
       O -4.04853e-01 -1.42022e+00 -1.27759e+00
       O  3.88079e+00 -2.05966e+01 -9.20455e+00
       O  9.47354e+00  4.26448e-01 -2.83003e-01
       O -5.81299e+00  1.24162e+01 -1.97830e+01
       O  4.50560e+00 -1.07174e+01 -1.31944e+01
       O  3.81682e+00 -9.10957e+00 -2.03975e+01
       O -1.39922e+01 -4.15469e+01  1.57947e+01
       O -1.33585e+01  1.22672e+01  2.29369e+01
30
# CELL(abcABC):    9.58988     9.58988    25.88886    90.00002    89.99998   120.00001  Step:           6  Bead:       0 momenta{atomic_unit}  cell{atomic_unit}
      Nb  2.86950e+01  4.94293e+01 -6.57488e+01
      Nb  3.18445e+01 -3.95192e+00 -2.85418e+01
      Nb  2.28574e+01  1.88103e+01  3.57967e+01
      Nb -5.81763e+01 -2.87393e+01 -9.62418e+00
      Nb -1.19821e+01 -2.38962e+01 -9.36337e+00
      Nb  6.54956e+01  3.20227e+01  2.94552e+00
      Li  1.22699e+01 -1.07954e+01  9.90995e+00
      Li -1.25530e+01 -1.25458e+01  6.21106e+00
      Li  5.10170e+00 -7.52912e+00  3.93687e+00
      Li  6.97489e+00  8.18855e+00  9.87482e+00
      Li  1.17514e+01  1.42477e+00 -7.99310e+00
      Li -1.13857e+01 -2.21049e+00 -5.99682e-02
       O  1.77244e+01  1.24457e+01  1.71331e+01
       O -3.81861e+01  1.48720e+01  5.07604e+00
       O  8.37256e+00 -9.31240e+00  5.22823e+00
       O -8.23309e+00 -7.46584e+00  4.71949e+00
       O -1.35246e+01 -4.77626e+00  3.63480e+00
       O -3.16787e+01 -1.61557e+01  2.05496e+01
       O  1.36820e+01  1.11528e+01  5.40812e+00
       O -2.04489e+00  5.26481e+00 -9.14283e+00
       O -1.75955e+01  9.15137e+00 -5.57399e+00
       O -1.52917e+01 -1.02678e+01 -1.57892e+01
       O -1.52120e+01 -1.18783e+01  6.16432e+00
       O  4.74491e+00 -1.18434e+01 -2.93527e+00
       O -7.32300e-01  1.19179e+01  4.14723e+00
       O -9.01150e+00  7.85433e+00  1.23992e+00
       O  2.48773e+01  7.94095e+00 -4.32984e+00
       O  7.15114e+00 -3.52724e+00 -1.52291e+01
       O -1.87390e+01 -3.12942e+01  5.59763e+00
       O  2.80371e+00  5.71365e+00  2.67580e+01
30
# CELL(abcABC):    9.58988     9.58988    25.88886    90.00002    89.99998   120.00001  Step:           7  Bead:       0 momenta{atomic_unit}  cell{atomic_unit}
      Nb  1.58642e+01  1.50219e+01 -5.74017e+01
      Nb  7.35411e+00  3.71663e+01 -7.33021e+00
      Nb  3.60904e+01 -2.53885e+00  1.67882e+01
      Nb -3.54136e+01 -2.39604e+01 -2.40472e+01
      Nb -3.00468e+01 -3.48415e+01  1.65169e+00
      Nb  1.13686e+02  8.51704e+00 -6.02314e+00
      Li  8.46546e+00 -8.69667e+00 -5.87523e+00
      Li -2.54433e+01 -2.93065e+00  1.48659e-01
      Li  6.99349e+00  2.29488e-01  3.11588e+00
      Li -1.12649e+01  1.46891e+01  7.00961e+00
      Li  8.56796e+00 -1.40798e+00  2.09502e+00
      Li -1.96224e+01  2.69212e+00  4.43336e-01
       O  3.13258e+01  9.10673e+00  1.41468e+01
       O -3.00678e+01  6.56978e+00  3.77599e+00
       O  5.21242e+00 -1.03609e+01  7.43079e+00
       O -1.80058e+00 -1.00537e+01  2.55157e+01
       O -3.58959e+01  8.98811e+00  1.93559e+01
       O -3.73392e+01  1.09163e+01 -8.37494e+00
       O  3.03013e+01 -7.70360e-01  7.48522e-01
       O  2.46577e+00  3.05391e+00  7.18665e-01
       O -1.19364e+01  2.22841e+01  8.21945e+00
       O -3.06498e+01 -1.07006e+01  1.20097e+00
       O  7.83934e+00 -1.23913e+01 -3.18056e+00
       O  2.99213e+01 -1.35092e+01 -7.71135e+00
       O  8.62829e+00  2.41693e+00  9.66124e+00
       O -1.31578e+01  8.85420e+00 -8.61368e+00
       O -1.75929e+00  2.29230e+00 -8.43888e+00
       O -5.09548e+00 -1.81683e+00 -8.89056e+00
       O -1.79437e+01 -1.88535e+01  5.91802e+00
       O -5.27843e+00  3.39853e-02  1.79431e+01
30
# CELL(abcABC):    9.58988     9.58988    25.88886    90.00002    89.99998   120.00001  Step:           8  Bead:       0 momenta{atomic_unit}  cell{atomic_unit}
      Nb  4.25225e+01  1.80000e+01 -5.98790e+01
      Nb -1.14961e+01  4.00342e+01 -1.16214e+01
      Nb  6.15681e+01  2.17685e+01 -4.80876e-01
      Nb -4.79317e+01  3.27930e+01 -2.84807e+01
      Nb  2.26811e+00 -7.66347e+00 -2.42033e+01
      Nb  7.51450e+01  9.53018e+00  2.71991e+01
      Li  1.61552e+01 -8.58303e+00  3.24137e+00
      Li -1.32977e+01 -8.56254e+00  5.34425e+00
      Li  8.71747e+00 -4.16711e+00 -1.44480e+01
      Li -3.48377e+00  1.37894e+01  1.50332e+01
      Li  2.63767e+00 -8.28593e+00 -3.21663e+00
      Li -1.02322e+01  4.51061e+00  3.69244e+00
       O  6.11707e+00  7.79878e+00 -1.53491e+01
       O -1.97547e+01  1.01966e+00  2.35777e+01
       O  2.47199e+01 -3.17243e+01  1.38129e+01
       O  6.15010e+00  6.01514e+00  1.65031e+01
       O -2.57402e+01 -1.45032e+01  3.46815e+00
       O -2.00306e+01 -1.48313e+01 -9.66074e+00
       O  6.05253e+00  6.42151e+00 -5.73251e+00
       O -1.24426e+01  1.77009e+01 -8.02636e+00
       O -3.40992e+00  1.20550e+01  1.49801e+01
       O -1.24018e+01 -2.29726e+01  1.30173e+01
       O -6.41138e-01 -5.73590e-01  2.53214e+00
       O  1.39108e+01 -2.26340e+01  3.96167e+00
       O -5.64575e+00 -1.02674e+01  1.20064e+00
       O -3.69273e+01  1.60317e+01 -2.25696e+01
       O -2.71809e+00 -5.21816e+00  8.09449e+00
       O  7.00287e+00 -2.06975e+01  1.66448e+01
       O -3.53335e+01 -2.28953e+01  4.80453e+00
       O -1.14802e+01 -3.88929e+00  2.65604e+01
30
# CELL(abcABC):    9.58988     9.58988    25.88886    90.00002    89.99998   120.00001  Step:           9  Bead:       0 momenta{atomic_unit}  cell{atomic_unit}
      Nb  3.65282e+01  8.30747e+00 -9.46918e+00
      Nb -1.91255e+01  9.57045e+01 -1.21342e+01
      Nb  4.39224e+01  2.69791e+01 -7.43134e+00
      Nb -3.53695e+01 -4.57392e+01 -9.53478e+00
      Nb -2.21297e+01 -7.05372e+00 -4.02013e+01
      Nb  1.05112e+02 -2.09231e+01 -1.41841e+01
      Li -1.33139e+00 -1.10346e+01  1.16392e+01
      Li -1.48968e+01 -1.24129e+01  1.03760e+01
      Li  8.24022e+00 -8.03580e+00  5.29038e-01
      Li  7.87986e+00  3.56672e+00  1.11622e+01
      Li  1.28436e+01 -7.62830e+00 -2.40630e+00
      Li -1.62527e+01 -8.50039e+00 -9.71353e+00
       O -1.32013e+01  1.89842e+01 -4.97458e+00
       O -1.61026e+01  1.31162e+01  3.50229e+01
       O  2.17233e+01 -6.94224e+00  2.04691e+00
       O  9.78979e+00 -6.46550e+00  1.22194e+01
       O -2.60454e+01 -1.03812e+01  1.07698e+01
       O -1.59609e+01 -6.68681e+00 -8.26960e+00
       O  1.16876e+01  1.13596e+01  1.69031e+01
       O  3.80827e+00  1.44941e+01 -1.72193e+01
       O -1.18184e+01  1.40920e+01  3.74376e+00
       O -3.34381e+01 -6.10543e+00  2.00885e+01
       O -3.77858e+00 -2.52128e+01 -3.17570e+00
       O  2.25700e+01 -1.10688e+01 -6.11854e+00
       O -9.76487e+00 -4.45433e+00  8.96787e+00
       O -2.19110e+01  1.71005e+01 -2.23951e+01
       O -1.07033e+01 -8.61726e+00 -7.64238e+00
       O -4.76869e+00 -1.13089e+01  1.08735e+01
       O -1.03342e+01 -2.51565e+01  3.11960e+00
       O  2.82734e+00  2.00235e+01  1.74082e+01
30
# CELL(abcABC):    9.58988     9.58988    25.88886    90.00002    89.99998   120.00001  Step:          10  Bead:       0 momenta{atomic_unit}  cell{atomic_unit}
      Nb  3.21841e+01  8.97819e+01 -3.14379e+01
      Nb -5.56039e+00  2.90271e+00 -1.39262e+01
      Nb  1.57837e+01  1.84062e+01  4.44278e+01
      Nb -3.68431e+01 -5.13620e+01 -3.56400e+01
      Nb -3.64001e+01  2.54309e+01 -4.10392e+01
      Nb  1.04704e+02  8.82288e+00  3.58264e+01
      Li  1.76864e+00 -4.79658e+00  3.69877e+00
      Li -1.17448e+01 -1.45718e+00  2.04223e+01
      Li  4.56003e+00 -9.25486e+00  8.42311e+00
      Li  1.50118e+01  1.95274e+00  7.98462e+00
      Li  2.63664e+00 -2.17417e+01  1.06005e-01
      Li -1.92882e+00  8.55070e-01 -2.38334e+00
       O  7.35384e+00  6.12438e+00  1.44421e+00
       O -2.07984e+01  8.79447e+00  9.58971e+00
       O  1.14857e+01 -7.08540e+00 -2.40429e+00
       O  9.08125e+00  1.12224e+01  1.64114e+01
       O -2.58237e+01  1.45339e+00  7.82339e+00
       O -1.31615e+01 -7.38472e+00  1.14295e+00
       O  3.94394e+00  9.88839e+00  5.20383e+00
       O -2.85367e+00 -1.93309e-01 -9.47223e+00
       O -9.49623e+00  1.27818e+01  5.41992e+00
       O -2.11541e+01 -6.70685e+00 -4.18646e+00
       O -2.98936e+00 -2.29664e+01  7.21158e+00
       O  1.41658e+01 -1.31496e+01 -1.48049e+01
       O -3.64518e+00  4.28055e+00  1.23398e+01
       O -1.91019e+01  1.04646e+01 -2.55271e+01
       O -7.47743e+00 -1.25709e+01 -1.02135e+01
       O -2.63042e+00 -6.06133e+00 -6.71652e+00
       O -3.20478e+00 -4.27582e+01 -5.68623e+00
       O  2.13462e+00 -5.67328e+00  1.59621e+01
30
# CELL(abcABC):    9.58988     9.58988    25.88886    90.00002    89.99998   120.00001  Step:          11  Bead:       0 momenta{atomic_unit}  cell{atomic_unit}
      Nb  1.30266e+01  6.38223e+01 -3.49138e+01
      Nb -3.40111e+01 -1.08320e+01  1.24355e+01
      Nb  3.72178e+01  1.34319e+01  1.36732e+01
      Nb -7.11405e+00 -2.67753e+01 -1.14823e+01
      Nb -6.05215e+00  3.49240e+01 -4.44009e+01
      Nb  7.23459e+01  1.71711e+01 -1.22657e+00
      Li  8.13510e-01 -1.50331e+01  6.73625e+00
      Li -1.68423e+01 -6.01187e+00  1.14618e+01
      Li -4.62907e-01 -5.69756e-01  6.35976e+00
      Li  6.35268e+00  8.00005e+00  5.26660e+00
      Li  5.63323e+00 -1.80057e+01 -1.28419e+01
      Li -1.11435e+01 -2.47415e+00 -7.92234e+00
       O -2.10865e+00 -1.60204e+00  1.52382e+01
       O -1.17955e+01  8.49740e+00  3.01370e+01
       O  8.66503e+00 -8.65134e+00  8.91954e+00
       O -9.38886e-01  1.79435e+00 -7.46564e-01
       O -2.11282e+01 -8.66009e+00  9.20542e+00
       O -1.74714e+01 -1.83386e+01  5.93590e+00
       O  2.28350e+00  9.06144e+00  2.13242e+01
       O -1.88478e+00 -2.06310e+01 -7.48389e+00
       O  1.19050e+01  9.53305e-01  5.72482e+00
       O -1.59834e+01 -8.80617e+00  8.99037e+00
       O -2.05143e+00 -1.93078e+01  3.44163e+00
       O  2.61567e+01 -1.96113e+01 -2.35839e+01
       O -8.61704e+00  1.64174e+01 -9.21407e+00
       O -5.44586e+00  2.54225e+01 -1.51019e+01
       O -5.02605e+00  1.43590e+01 -1.16631e+01
       O  8.86889e+00 -7.00430e+00 -1.65476e+00
       O -1.69905e+01 -1.71238e+01 -7.72086e+00
       O -8.20115e+00 -4.41644e+00  2.51067e+01
30
# CELL(abcABC):    9.58988     9.58988    25.88886    90.00002    89.99998   120.00001  Step:          12  Bead:       0 momenta{atomic_unit}  cell{atomic_unit}
      Nb -4.32709e+00  1.66128e+01 -1.00296e+01
      Nb -5.08811e+01  3.23178e+01  1.03993e+01
      Nb  3.86315e+01 -2.60364e+00  3.03760e+01
      Nb -3.08406e+01 -3.46258e+01 -1.25002e+01
      Nb -1.00053e+01 -2.82966e+00 -3.94820e+01
      Nb  7.53463e+01  2.44964e+01  5.60385e+01
      Li -5.90479e+00 -1.33257e+01  2.36980e+00
      Li -2.32717e+01 -1.60584e+00  4.56874e+00
      Li  7.09805e+00  2.22354e+00  1.01563e+01
      Li  5.13388e+00  1.38896e+00  2.90310e+00
      Li  1.33203e+01 -2.23065e+01 -6.44092e+00
      Li -1.36856e+01  7.16823e+00 -4.76831e+00
       O  1.89244e+01 -3.18482e+00 -2.31572e+00
       O -6.11065e+00 -5.42853e+00  7.26346e-01
       O  3.22416e+01  4.11045e+00  9.14523e+00
       O  2.08983e+01 -2.56898e+00  1.21005e+01
       O -1.94870e+00 -5.18558e+00  5.97646e+00
       O -3.41181e+01 -1.44701e+01 -1.64398e+01
       O  7.03913e+00  8.11151e+00  1.01835e+01
       O -3.95679e+00  5.43758e+00 -1.84615e+01
       O  4.11299e+00  1.12877e+01 -2.54907e+01
       O -1.18397e+01 -1.60365e+01 -9.75546e-01
       O -1.47211e+01 -2.48173e+00  7.31405e+00
       O  2.79564e+01 -5.34684e+00 -6.68945e+00
       O -4.23948e+00  4.66746e+00 -9.89106e-02
       O -1.30651e+01  6.63552e+00 -2.86655e+01
       O -4.64321e+00  2.10651e+01 -2.33515e+00
       O  1.10133e+00  6.23720e+00 -9.77176e+00
       O -1.57740e+01 -2.45314e+01  4.15622e+00
       O -2.47117e+00  4.77120e+00  1.80512e+01
30
# CELL(abcABC):    9.58988     9.58988    25.88886    90.00002    89.99998   120.00001  Step:          13  Bead:       0 momenta{atomic_unit}  cell{atomic_unit}
      Nb  4.15883e+00  3.46242e+01 -8.13279e+00
      Nb -3.87746e+01 -3.04398e+01  1.84267e+01
      Nb  3.00852e+01  2.42493e+00 -4.13149e-01
      Nb -3.75757e+01 -1.21204e+01  1.65888e+01
      Nb -2.79044e+01 -2.36179e+01 -8.07196e+01
      Nb  8.19417e+01  2.66746e+01  4.08316e+00
      Li -4.67073e-01 -1.40333e+01  9.11962e-01
      Li -2.61866e+01 -4.81702e+00  1.88753e+01
      Li  2.26065e+01 -1.52034e+00  5.28933e+00
      Li  8.05583e+00  1.11628e+01  2.53828e+00
      Li  1.41416e+01 -1.73053e+01 -8.18869e+00
      Li -9.94815e+00  4.35004e+00  3.80409e+00
       O  9.71780e+00 -4.04604e+00  9.59914e+00
       O  2.03107e-02  7.38024e+00  9.73184e+00
       O  2.41887e+01 -3.33457e+00  1.37018e+01
       O  3.18168e+01  1.44470e+01  5.39971e+00
       O -1.93042e+01  3.14547e+01 -2.39312e+00
       O -5.18387e+01 -1.00188e+00  1.43393e+01
       O  1.27135e+01  8.05790e+00 -1.68051e+00
       O -8.86258e+00  1.40911e+00 -2.46196e+01
       O  9.16476e+00  1.39419e+01 -4.63581e+00
       O -2.31037e+01 -1.33052e+01  5.69738e+00
       O -5.00360e+00 -9.79621e+00  5.17298e+00
       O  2.29080e+01 -1.44262e+01 -1.95112e+01
       O  1.86249e+01  2.08394e+01  1.97250e+01
       O -5.32595e+00  2.64369e+01 -2.74576e+01
       O -2.02669e+01 -2.33845e+00  1.95884e+00
       O -1.10019e+01 -3.42173e+01  8.38289e-01
       O -1.54626e+01 -1.81707e+01  7.11015e-01
       O  1.08822e+01  1.28677e+00  2.03593e+01
30
# CELL(abcABC):    9.58988     9.58988    25.88886    90.00002    89.99998   120.00001  Step:          14  Bead:       0 momenta{atomic_unit}  cell{atomic_unit}
      Nb -4.63749e+00  3.62454e+01 -3.09042e+01
      Nb -2.06971e+01 -5.96797e+00  1.53494e+01
      Nb  4.35466e+01 -2.14490e+01  3.33079e+01
      Nb -2.50401e+01 -4.14049e+01  7.14971e+00
      Nb -1.79033e+01 -5.75538e+00 -1.99370e+01
      Nb  5.52404e+01  3.04553e+01  9.84484e+00
      Li  2.12409e+00 -1.77492e+01 -6.89565e+00
      Li -1.39213e+01 -1.47039e+01  1.00562e+01
      Li  5.66802e+00  8.49600e+00  8.71688e+00
      Li  5.91445e+00  6.89258e+00  5.69342e+00
      Li  8.45373e+00 -8.29585e+00 -1.05072e+01
      Li -1.04909e+01  8.36832e+00 -1.26592e+00
       O  4.80757e+00  8.64036e+00 -2.07914e+01
       O -1.99563e+00  1.35640e+01  9.38618e+00
       O  9.36508e+00 -5.26833e+00  2.29419e+01
       O  2.03706e+01  2.36922e-01 -7.52557e+00
       O -1.82975e+01  8.74291e+00 -9.86256e+00
       O -4.00553e+01 -7.59174e+00  1.49028e+01
       O -2.19250e+01  1.01047e+01 -4.68689e+00
       O  2.12996e+00  6.18134e+00 -9.10550e+00
       O -1.60696e+00  1.70148e+01 -4.71237e+00
       O -3.30554e+01 -4.50067e+00 -8.43832e+00
       O  6.06642e+00  2.63429e-01 -1.91636e+00
       O  2.88653e+01 -2.30966e+01 -8.27181e+00
       O  9.46747e+00  1.49667e+01  1.07821e+01
       O -1.65196e+01  1.28546e+01 -1.23494e+00
       O  2.28590e+01  1.22042e+01 -1.12313e+01
       O -4.89892e+00 -2.25668e+01 -3.56347e+00
       O -7.44820e+00 -2.50519e+01 -1.06251e+00
       O  1.36140e+01  8.17074e+00  1.37817e+01
30
# CELL(abcABC):    9.58988     9.58988    25.88886    90.00002    89.99998   120.00001  Step:          15  Bead:       0 momenta{atomic_unit}  cell{atomic_unit}
      Nb  1.37608e+00  6.37841e+01 -4.99579e+00
      Nb  8.85058e+00 -5.79731e+00  1.68844e+01
      Nb -1.43697e-01 -4.65245e+01 -2.27371e+01
      Nb -7.02800e+00 -2.81051e+01  5.47175e+00
      Nb -2.31621e+01  1.17576e+00 -5.26603e+01
      Nb  6.79887e+01  2.05705e+01 -1.25867e+01
      Li  6.40255e-01 -2.28291e+01  8.44537e+00
      Li -1.75517e+01  2.34016e-01  1.33470e+01
      Li  1.24376e+01 -7.48102e+00  6.46849e+00
      Li  6.76181e+00  1.63626e+01  1.18593e+01
      Li  8.70186e+00 -5.59994e+00 -3.27287e+00
      Li  7.51150e+00 -2.37610e+00 -1.21977e+01
       O -2.65453e+01  8.56054e+00  1.62834e+01
       O -9.84165e+00  9.40181e+00 -8.38234e+00
       O  3.63336e+00 -1.15507e+01  2.76685e+01
       O  1.34033e+01  5.70465e+00 -1.46645e+01
       O -7.94764e+00  1.65272e+01  5.45748e+00
       O -2.92195e+01  9.05590e+00 -9.58604e+00
       O -9.27645e+00  2.07392e+01 -4.43736e+00
       O  1.26324e+00 -1.89094e+01  1.34706e+01
       O -6.05378e+00 -3.95145e-01 -7.81549e+00
       O -3.11160e+01 -4.98418e+00  3.28199e+00
       O  1.00009e+01  1.21070e+01  3.78349e+00
       O  2.18927e+01  2.03813e+00 -1.25831e+01
       O  1.77030e+01  1.31111e+01  1.93496e+01
       O -6.85527e+00  8.18634e+00 -8.84437e+00
       O -1.05138e+01 -2.77366e+01  8.18897e+00
       O -6.52896e+00 -1.74462e+01  1.14675e+00
       O -7.31647e+00 -2.23233e+01 -5.70240e+00
       O  1.69355e+01  1.44998e+01  1.93589e+01
30
# CELL(abcABC):    9.58988     9.58988    25.88886    90.00002    89.99998   120.00001  Step:          16  Bead:       0 momenta{atomic_unit}  cell{atomic_unit}
      Nb -6.34792e+00  6.33152e+01 -2.39979e+01
      Nb -3.09055e+01  1.07274e+01  6.27088e+01
      Nb  1.28808e+01 -3.70648e+00 -3.20353e+01
      Nb -4.76467e+01 -2.22638e+01 -7.91148e+00
      Nb -1.33647e-01  2.94135e+01 -5.08591e+01
      Nb  8.47839e+01 -1.86460e+01  1.94067e+01
      Li  1.04847e+00 -1.47088e+01 -6.76229e+00
      Li -1.93397e+01 -8.38943e+00  1.82821e+01
      Li  2.95129e+00 -8.48625e+00 -9.44793e+00
      Li -4.59994e+00  1.78120e+01  5.90371e+00
      Li  8.68493e+00 -2.27657e+01 -2.97261e+00
      Li -1.41297e+01 -8.20005e+00 -5.75572e+00
       O  3.66387e+00  2.86486e+00  1.05499e+01
       O -1.34174e+01  8.15168e+00  1.11466e+01
       O  2.29988e+01 -8.31272e+00  7.06822e+00
       O  1.49984e+01  2.44473e+01  3.99876e+00
       O  1.05117e+01 -3.83685e+00 -1.23768e+01
       O -9.87280e+00 -5.54273e+00  3.87288e+00
       O  1.33586e+00  4.74332e+00 -5.75321e+00
       O  2.00008e+00  1.12265e+00  5.83031e+00
       O -1.14343e+01  1.74792e+01 -9.20966e+00
       O -1.27402e+01  4.62171e+00  2.71167e+00
       O -1.15057e+01 -1.12022e+01 -2.62697e+00
       O  3.15095e+01 -3.62983e+01 -1.33310e-01
       O  1.47302e+01  1.03683e+01  6.88828e+00
       O -2.88516e+01  6.25622e+00 -1.37046e+01
       O  7.38719e-01 -1.12331e+01  1.09010e+01
       O -5.23285e-01 -1.09008e+01 -1.48984e+00
       O -9.61152e+00 -1.96451e+01 -1.15240e+01
       O  8.22344e+00  1.28148e+01  2.72917e+01
30
# CELL(abcABC):    9.58988     9.58988    25.88886    90.00002    89.99998   120.00001  Step:          17  Bead:       0 momenta{atomic_unit}  cell{atomic_unit}
      Nb -2.87820e+01  2.51976e+01 -1.91655e+00
      Nb  3.78972e+01  4.82942e+01  3.09322e+01
      Nb  1.45771e+01 -2.24699e+01 -2.17212e+01
      Nb -4.73863e+01 -1.90043e+01 -1.24465e+01
      Nb -4.42566e+01  5.33353e+01 -1.78830e+01
      Nb  5.55194e+01 -1.39007e+01  8.61755e+00
      Li  1.49155e+00 -1.83080e+01 -7.72097e+00
      Li -1.86278e+01 -2.63838e+00  1.13828e+00
      Li -1.39375e+01 -5.28033e+00  1.11998e+00
      Li  1.09814e+01  2.55707e+00  1.11735e+01
      Li  7.31083e+00 -2.35220e+01  6.49972e+00
      Li  2.37556e+00  1.87899e+00 -2.56901e+00
       O  1.43596e+01  2.96423e+01  6.82215e+00
       O  4.30279e-01  7.91289e+00  2.64433e+01
       O  1.49176e+01 -1.52885e+01  1.36884e+01
       O  3.45298e+00  1.01659e+00 -8.91455e+00
       O  4.97085e+00  1.15664e+00 -1.45046e+01
       O -6.59184e+00 -1.25883e+01 -2.15252e+00
       O -2.52396e+00  1.77867e+01 -1.20735e+01
       O  4.07469e+00  9.87031e+00 -8.85606e+00
       O -1.16255e+00  6.80919e+00 -7.04787e+00
       O -1.76714e+01 -1.01687e+01  2.75317e+00
       O -4.92692e+00 -1.52761e+01  1.40624e+01
       O  2.10273e+01 -6.59288e+00 -3.40728e+01
       O  6.11593e+00  7.69482e+00  1.92635e+01
       O -1.49232e+01 -5.52835e+00 -2.59107e+01
       O -4.89769e+00 -2.06191e+01  8.83434e+00
       O  6.43688e+00 -2.19419e+01  9.73248e+00
       O -1.90184e+01 -7.81829e+00 -2.43863e+00
       O  1.87670e+01  7.79297e+00  1.91475e+01
30
# CELL(abcABC):    9.58988     9.58988    25.88886    90.00002    89.99998   120.00001  Step:          18  Bead:       0 momenta{atomic_unit}  cell{atomic_unit}
      Nb  4.47299e+00 -1.01305e+01 -2.42600e+00
      Nb  2.46621e+01  1.50706e+01  3.69613e+01
      Nb  2.86495e+01  8.39949e+00  1.53275e+01
      Nb -1.87933e+01 -9.60965e+00 -5.96849e+01
      Nb -2.63795e+01  2.75498e+01 -4.29571e+01
      Nb  4.70481e+01  9.42420e+00  1.02495e+00
      Li  1.01683e+00 -2.40142e+01  5.10783e+00
      Li -1.74488e+01 -6.30078e+00 -1.86824e-01
      Li -7.41055e+00 -1.28345e+01  1.71037e+00
      Li  1.06524e+01  2.53647e+00  6.32226e+00
      Li  9.54467e+00 -6.13182e+00  4.61441e+00
      Li  3.93269e+00 -1.53055e+00  3.24852e+00
       O  9.15852e+00  1.01812e+01 -1.48082e+01
       O -2.94556e+00  7.80976e+00  9.70379e+00
       O -1.90038e+00 -1.98186e+01  1.55958e+01
       O  1.05834e+01  5.30004e+00 -1.88658e+01
       O -7.87618e+00  8.06979e+00  7.28408e+00
       O -2.24830e+01 -1.84562e+01  1.31425e+01
       O  9.95574e+00  6.22242e+00 -6.27906e+00
       O -2.01885e+01  1.93775e+01  2.40271e+00