30
# CELL(abcABC):    9.58988     9.58988    25.88886    90.00002    89.99998   120.00001  Step:           0  Bead:       0 velocities{atomic_unit}  cell{atomic_unit}
      Nb -1.26115e-04  1.36784e-04 -1.57250e-04
      Nb -9.76855e-05  2.95340e-04 -8.38762e-05
      Nb  7.56324e-05  4.15322e-05  2.46975e-05
      Nb  2.40823e-04  6.67337e-05 -2.01046e-04
      Nb -3.55859e-05 -1.04170e-04 -1.31719e-04
      Nb  2.28668e-04  2.35605e-06  1.57148e-04
      Li  5.48158e-04 -7.71792e-04  1.73615e-04
      Li -1.37541e-03 -5.86332e-04  8.39349e-04
      Li  1.33226e-03 -4.40190e-04  9.09433e-04
      Li -2.52381e-04  1.28405e-03  6.98774e-04
      Li -2.28209e-04 -5.87534e-04  5.15460e-05
      Li  3.01981e-04 -4.87278e-04  3.86735e-05
       O -3.60397e-05 -2.81111e-04  2.75970e-04
       O -5.35265e-05 -2.45919e-04  9.29913e-04
       O  6.69704e-05  3.12729e-05 -3.75115e-04
       O -1.88788e-04 -3.03808e-06  1.27385e-04
       O -2.27659e-05  7.77500e-04  3.30820e-04
       O -1.03231e-03 -2.96019e-04 -3.27077e-04
       O  2.35009e-04  7.50089e-04  2.06225e-04
       O  1.47034e-05  8.96925e-05  1.64993e-04
       O  5.19207e-05  2.42675e-04  2.01269e-04
       O -3.02529e-04 -6.08527e-04  2.20752e-04
       O -1.17463e-03 -5.99362e-04 -1.44504e-04
       O  6.90718e-04 -9.72424e-04  1.69680e-04
       O  1.48768e-04 -6.79742e-04  7.12147e-06
       O -1.04251e-03 -1.66754e-05 -5.93636e-04
       O  9.79511e-04  6.88011e-04 -7.55780e-05
       O  2.60084e-04 -3.76273e-04 -3.59876e-04
       O -2.55031e-04 -7.92153e-04 -9.90327e-05
       O -1.40380e-04  4.34642e-04  4.40965e-04
30
# CELL(abcABC):    9.58988     9.58988    25.88886    90.00002    89.99998   120.00001  Step:           1  Bead:       0 velocities{atomic_unit}  cell{atomic_unit}
      Nb -6.65579e-05  3.65939e-04 -3.67832e-04
      Nb  3.70552e-05  3.92788e-06 -4.26853e-05
      Nb  1.31706e-04  2.77856e-05 -3.03886e-04
      Nb  2.11644e-04 -1.05090e-05  9.52455e-05
      Nb -1.47894e-04  5.77947e-05  1.11867e-05
      Nb  1.03636e-04  1.93214e-05  4.36811e-05
      Li  1.00021e-03 -1.10741e-03  8.91667e-04
      Li -9.76005e-04 -2.83428e-05  4.71517e-04
      Li  1.17647e-03 -7.14614e-04 -3.01943e-04
      Li  7.65501e-04  7.02501e-04  1.54818e-03
      Li -3.96448e-04 -1.13009e-04  2.18967e-04
      Li -3.58306e-04 -5.02437e-04 -7.63133e-05
       O  3.82450e-04  3.10827e-04  2.01884e-04
       O  1.12438e-04 -3.82282e-05  1.06649e-03
       O  3.25549e-04  6.55646e-05  2.91065e-04
       O -2.36082e-04 -2.35719e-04 -1.30708e-04
       O -8.39526e-04  2.78901e-04  1.93561e-04
       O -6.81599e-04  1.65742e-04  1.19824e-04
       O  1.44364e-04 -9.50649e-05  4.72756e-04
       O -1.24118e-04 -1.14153e-04 -1.09070e-04
       O  2.29209e-04 -1.18352e-04  4.08703e-04
       O -8.87886e-04  2.14310e-04 -1.20716e-05
       O -6.92803e-04 -7.11090e-04 -3.24786e-04
       O  6.82010e-04 -5.90189e-04 -8.91109e-05
       O -1.56601e-05 -5.01522e-04  2.55675e-04
       O -7.14152e-04  1.88512e-04 -7.95712e-05
       O  1.94798e-04 -3.63222e-04 -3.54840e-04
       O -3.14146e-04 -1.67149e-04 -5.98021e-04
       O -1.52629e-04 -8.06679e-04 -1.44448e-04
       O  4.96758e-04  5.86598e-04  9.15494e-04
30
# CELL(abcABC):    9.58988     9.58988    25.88886    90.00002    89.99998   120.00001  Step:           2  Bead:       0 velocities{atomic_unit}  cell{atomic_unit}
      Nb -1.30930e-04  1.81142e-04 -2.82914e-04
      Nb -6.79961e-05  7.06381e-05 -3.22974e-05
      Nb  5.47289e-05 -1.05584e-04 -5.72007e-05
      Nb  3.36027e-04 -2.22880e-04 -1.53341e-04
      Nb  3.02600e-06  6.74279e-06  1.61991e-05
      Nb  3.34022e-04  3.79465e-04  2.30344e-04
      Li  4.59074e-04 -1.39857e-03  8.51046e-04
      Li -2.06489e-03 -4.97345e-04  4.98107e-04
      Li  1.51127e-03 -8.28293e-04 -1.21065e-04
      Li  6.67229e-05  9.90230e-04  6.69344e-04
      Li  3.90106e-04 -1.19395e-03 -2.02996e-04
      Li -5.40601e-04 -7.73096e-04  3.74770e-04
       O  6.25203e-04 -9.98167e-05 -1.48118e-04
       O -2.49488e-04  6.38584e-04  8.67165e-04
       O  1.01845e-04 -3.39142e-05  5.51612e-05
       O -2.56561e-04 -2.59156e-04 -2.12089e-04
       O -8.65314e-04  2.76549e-04 -7.15159e-05
       O -5.98337e-04 -1.29349e-04  2.77551e-04
       O  6.69787e-05  3.87681e-04  2.73067e-04
       O -5.20662e-04  1.31243e-05  3.24512e-06
       O  7.80097e-05  3.06765e-04  3.10272e-05
       O -6.24943e-04  8.06610e-06  2.75613e-04
       O -8.45270e-04 -5.99761e-04 -3.09661e-04
       O  5.76213e-04 -6.11780e-04 -4.47884e-04
       O -5.82311e-05 -3.91742e-05  2.80206e-04
       O -5.54495e-04 -2.22293e-04 -8.08889e-04
       O  6.23389e-04  3.80125e-04 -4.53082e-04
       O  1.57564e-04 -6.45935e-04 -3.00136e-04
       O -9.07844e-04 -3.60612e-04  4.56581e-04
       O  2.58179e-04  7.99150e-04  9.55415e-04
30
# CELL(abcABC):    9.58988     9.58988    25.88886    90.00002    89.99998   120.00001  Step:           3  Bead:       0 velocities{atomic_unit}  cell{atomic_unit}
      Nb -1.47344e-04  8.95821e-05 -7.76360e-05
      Nb -3.20679e-04  5.69683e-05 -1.75440e-04
      Nb  2.93811e-04  2.25886e-04 -8.21398e-05
      Nb  1.64222e-04 -2.91346e-04  5.51891e-05
      Nb  2.04178e-04  2.85895e-05 -1.07742e-04
      Nb  1.85749e-04  2.67949e-04  2.53343e-04
      Li  3.47987e-04 -4.98334e-04 -4.70847e-04
      Li -1.80043e-03 -8.44443e-04 -6.18523e-05
      Li  3.76730e-04  2.22019e-04 -2.21377e-04
      Li -4.19664e-04  1.63471e-03  6.09054e-04
      Li  4.33176e-04 -1.34522e-03 -8.15273e-05
      Li  2.45263e-04 -2.42661e-04  8.25763e-05
       O  9.12682e-04 -1.59145e-04 -9.77032e-06
       O -8.62209e-04  2.68627e-04  6.72047e-04
       O  1.04464e-03 -2.93140e-04  7.60670e-04
       O  4.95891e-05 -2.15295e-05  1.09689e-04
       O -1.09301e-03  7.42085e-05 -2.32903e-04
       O -4.99523e-04 -3.41877e-04  2.52220e-04
       O -2.43642e-04  3.75620e-04 -1.96419e-04
       O  3.26618e-06  1.59898e-04  2.87887e-04
       O -4.75221e-04  8.44465e-04 -1.21857e-04
       O -3.71935e-04 -2.56320e-04  2.80337e-04
       O -8.15689e-04  5.74393e-06  2.77533e-04
       O  5.10049e-04 -4.37230e-04 -5.02853e-04
       O -3.33186e-05 -2.46910e-04  6.67551e-04
       O -1.30054e-04 -1.28108e-04 -1.07494e-03
       O  5.10760e-04  1.62426e-04 -3.80515e-04
       O -2.94993e-04 -4.38928e-04 -7.16018e-04
       O -2.44575e-04 -1.13322e-03  2.93264e-04
       O  1.81359e-04 -1.61513e-04  4.77132e-04
30
# CELL(abcABC):    9.58988     9.58988    25.88886    90.00002    89.99998   120.00001  Step:           4  Bead:       0 velocities{atomic_unit}  cell{atomic_unit}
      Nb -7.73236e-05  1.26357e-04  1.52613e-04
      Nb  5.95348e-05  1.75846e-04 -1.04755e-04
      Nb  1.90832e-04 -1.31001e-04 -2.66251e-05
      Nb -3.38003e-05 -2.10415e-04 -1.98841e-04
      Nb  1.51867e-04  6.19342e-05 -1.28053e-04
      Nb  2.60792e-04  1.98834e-04  9.09681e-05
      Li  7.69779e-04 -1.54236e-03 -7.30199e-04
      Li -2.51418e-03 -7.51308e-04 -3.23333e-04
      Li  1.25097e-03  2.96075e-05  4.49343e-05
      Li -9.45022e-05 -1.56542e-04  2.93393e-04
      Li -4.21846e-04 -8.72791e-04  2.42181e-04
      Li -1.51689e-04 -4.26370e-04 -3.09377e-04
       O  7.02451e-04 -4.22056e-04 -4.52217e-04
       O -4.68792e-04  5.46348e-04  5.66886e-04
       O  2.40445e-04  1.76646e-04  4.75410e-04
       O -2.66407e-04  3.97574e-04  2.30773e-05
       O -9.78520e-04  1.69772e-04  3.47060e-04
       O -7.51246e-04 -4.49458e-04 -1.24905e-04
       O  1.92570e-04  1.13390e-06 -2.46869e-04
       O -3.53793e-04  4.66973e-04 -8.25201e-05
       O -6.32719e-04  1.02537e-03  6.44782e-04
       O -4.29818e-04  6.54151e-05 -2.06242e-05
       O -6.86495e-04  5.57139e-04  1.13835e-04
       O  8.01093e-04 -7.23543e-04  1.85357e-04
       O -2.07024e-05 -1.56634e-04  4.84424e-04
       O  1.64705e-06 -3.91356e-04 -9.39727e-04
       O  7.56673e-04 -1.69623e-04 -1.56894e-04
       O  1.51382e-05 -2.37007e-04 -7.54169e-05
       O -8.12452e-04 -6.55776e-04  3.52860e-04
       O -1.00234e-05  1.26288e-04  4.91604e-04
30
# CELL(abcABC):    9.58988     9.58988    25.88886    90.00002    89.99998   120.00001  Step:           5  Bead:       0 velocities{atomic_unit}  cell{atomic_unit}
      Nb -2.08933e-06  1.39542e-04 -1.10931e-04
      Nb -1.62245e-04  4.61018e-05 -1.13272e-04
      Nb  4.05880e-05  2.37191e-04 -4.23383e-05
      Nb -1.34036e-04 -6.60655e-05  2.50111e-04
      Nb  2.04862e-04 -1.96565e-04 -2.17267e-04
      Nb  6.51764e-04  2.31699e-04 -4.23185e-05
      Li -2.89155e-05 -1.76211e-04 -1.34802e-04
      Li -8.04500e-04 -6.35734e-04 -1.32440e-04
      Li  7.70283e-04  3.39538e-04 -6.63921e-04
      Li  4.11353e-04  3.15416e-05  3.29581e-04
      Li  3.25806e-05 -5.21363e-04  7.95856e-04
      Li  1.64258e-04 -8.60101e-04  2.34435e-05
       O  2.37860e-04 -6.26497e-05 -9.24689e-05
       O -5.03473e-04  2.69110e-04  1.02399e-03
       O  5.19572e-04 -2.27034e-05  8.36254e-05
       O -6.18474e-04 -4.62549e-04  1.88575e-04
       O -1.27073e-03  2.46959e-04  4.12899e-04
       O -7.62579e-04 -8.10381e-04 -9.55423e-05
       O  2.42967e-04  3.29600e-04  1.30735e-04
       O -1.55004e-04  2.70006e-04  1.39745e-04
       O -3.94774e-04  3.47994e-04  5.22569e-04
       O -6.01499e-04  4.07770e-04  6.54028e-05
       O -1.38814e-05 -4.86959e-05 -4.38054e-05
       O  1.33063e-04 -7.06208e-04 -3.15601e-04
       O  3.24824e-04  1.46218e-05 -9.70347e-06
       O -1.99313e-04  4.25719e-04 -6.78310e-04
       O  1.54486e-04 -3.67472e-04 -4.52403e-04
       O  1.30869e-04 -3.12345e-04 -6.99381e-04
       O -4.79758e-04 -1.42454e-03  5.41560e-04
       O -4.58029e-04  4.20613e-04  7.86451e-04
30
# CELL(abcABC):    9.58988     9.58988    25.88886    90.00002    89.99998   120.00001  Step:           6  Bead:       0 velocities{atomic_unit}  cell{atomic_unit}
      Nb  1.69434e-04  2.91863e-04 -3.88224e-04
      Nb  1.88031e-04 -2.33347e-05 -1.68529e-04
      Nb  1.34965e-04  1.11068e-04  2.11367e-04
      Nb -3.43511e-04 -1.69696e-04 -5.68274e-05
      Nb -7.07503e-05 -1.41099e-04 -5.52875e-05
      Nb  3.86729e-04  1.89083e-04  1.73923e-05
      Li  9.69751e-04 -8.53208e-04  7.83230e-04
      Li -9.92125e-04 -9.91551e-04  4.90889e-04
      Li  4.03211e-04 -5.95062e-04  3.11149e-04
      Li  5.51259e-04  6.47180e-04  7.80454e-04
      Li  9.28770e-04  1.12606e-04 -6.31732e-04
      Li -8.99864e-04 -1.74706e-04 -4.73957e-06
       O  6.07725e-04  4.26733e-04  5.87451e-04
       O -1.30931e-03  5.09926e-04  1.74045e-04
       O  2.87074e-04 -3.19299e-04  1.79263e-04
       O -2.82292e-04 -2.55985e-04  1.61820e-04
       O -4.63726e-04 -1.63766e-04  1.24628e-04
       O -1.08618e-03 -5.53938e-04  7.04594e-04
       O  4.69121e-04  3.82403e-04  1.85431e-04
       O -7.01142e-05  1.80517e-04 -3.13485e-04
       O -6.03306e-04  3.13778e-04 -1.91118e-04
       O -5.24315e-04 -3.52057e-04 -5.41372e-04
       O -5.21582e-04 -4.07277e-04  2.11359e-04
       O  1.62691e-04 -4.06080e-04 -1.00643e-04
       O -2.51087e-05  4.08636e-04  1.42198e-04
       O -3.08982e-04  2.69306e-04  4.25138e-05
       O  8.52982e-04  2.72276e-04 -1.48459e-04
       O  2.45195e-04 -1.20940e-04 -5.22167e-04
       O -6.42516e-04 -1.07300e-03  1.91929e-04
       O  9.61322e-05  1.95907e-04  9.17465e-04
30
# CELL(abcABC):    9.58988     9.58988    25.88886    90.00002    89.99998   120.00001  Step:           7  Bead:       0 velocities{atomic_unit}  cell{atomic_unit}
      Nb  9.36726e-05  8.86991e-05 -3.38937e-04
      Nb  4.34235e-05  2.19454e-04 -4.32823e-05
      Nb  2.13101e-04 -1.49911e-05  9.91283e-05
      Nb -2.09105e-04 -1.41478e-04 -1.41990e-04
      Nb -1.77416e-04 -2.05727e-04  9.75267e-06
      Nb  6.71274e-04  5.02902e-05 -3.55646e-05
      Li  6.69065e-04 -6.87339e-04 -4.64347e-04
      Li -2.01090e-03 -2.31623e-04  1.17492e-05
      Li  5.52729e-04  1.81375e-05  2.46263e-04
      Li -8.90322e-04  1.16095e-03  5.54003e-04
      Li  6.77166e-04 -1.11279e-04  1.65579e-04
      Li -1.55085e-03  2.12771e-04  3.50389e-05
       O  1.07408e-03  3.12247e-04  4.85059e-04
       O -1.03095e-03  2.25261e-04  1.29469e-04
       O  1.78721e-04 -3.55248e-04  2.54783e-04
       O -6.17373e-05 -3.44718e-04  8.74869e-04
       O -1.23078e-03  3.08180e-04  6.63666e-04
       O -1.28027e-03  3.74293e-04 -2.87156e-04
       O  1.03896e-03 -2.64137e-05  2.56650e-05
       O  8.45451e-05  1.04711e-04  2.46412e-05
       O -4.09271e-04  7.64068e-04  2.81825e-04
       O -1.05090e-03 -3.66896e-04  4.11784e-05
       O  2.68792e-04 -4.24866e-04 -1.09054e-04
       O  1.02593e-03 -4.63196e-04 -2.64403e-04
       O  2.95843e-04  8.28706e-05  3.31260e-04
       O -4.51149e-04  3.03589e-04 -2.95342e-04
       O -6.03217e-05  7.85972e-05 -2.89348e-04
       O -1.74712e-04 -6.22947e-05 -3.04835e-04
       O -6.15245e-04 -6.46439e-04  2.02914e-04
       O -1.80984e-04  1.16527e-06  6.15223e-04
30
# CELL(abcABC):    9.58988     9.58988    25.88886    90.00002    89.99998   120.00001  Step:           8  Bead:       0 velocities{atomic_unit}  cell{atomic_unit}
      Nb  2.51081e-04  1.06284e-04 -3.53565e-04
      Nb -6.78807e-05  2.36388e-04 -6.86203e-05
      Nb  3.63538e-04  1.28536e-04 -2.83941e-06
      Nb -2.83020e-04  1.93631e-04 -1.68169e-04
      Nb  1.33924e-05 -4.52501e-05 -1.42912e-04
      Nb  4.43705e-04  5.62724e-05  1.60601e-04
      Li  1.27682e-03 -6.78357e-04  2.56181e-04
      Li -1.05098e-03 -6.76738e-04  4.22381e-04
      Li  6.88982e-04 -3.29346e-04 -1.14189e-03
      Li -2.75338e-04  1.08984e-03  1.18815e-03
      Li  2.08467e-04 -6.54876e-04 -2.54225e-04
      Li -8.08701e-04  3.56495e-04  2.91831e-04
       O  2.09739e-04  2.67401e-04 -5.26284e-04
       O -6.77339e-04  3.49615e-05  8.08420e-04
       O  8.47586e-04 -1.08775e-03  4.73609e-04
       O  2.10872e-04  2.06244e-04  5.65849e-04
       O -8.82567e-04 -4.97279e-04  1.18914e-04
       O -6.86799e-04 -5.08530e-04 -3.31243e-04
       O  2.07526e-04  2.20178e-04 -1.96554e-04
       O -4.26628e-04  6.06920e-04 -2.75204e-04
       O -1.16918e-04  4.13335e-04  5.13629e-04
       O -4.25225e-04 -7.87674e-04  4.46333e-04
       O -2.19831e-05 -1.96670e-05  8.68207e-05
       O  4.76966e-04 -7.76063e-04  1.35836e-04
       O -1.93579e-04 -3.52044e-04  4.11669e-05
       O -1.26615e-03  5.49686e-04 -7.73855e-04
       O -9.31966e-05 -1.78918e-04  2.77540e-04
       O  2.40111e-04 -7.09667e-04  5.70707e-04
       O -1.21150e-03 -7.85022e-04  1.64736e-04
       O -3.93628e-04 -1.33354e-04  9.10691e-04
30
# CELL(abcABC):    9.58988     9.58988    25.88886    90.00002    89.99998   120.00001  Step:           9  Bead:       0 velocities{atomic_unit}  cell{atomic_unit}
      Nb  2.15686e-04  4.90527e-05 -5.59122e-05
      Nb -1.12929e-04  5.65102e-04 -7.16484e-05
      Nb  2.59347e-04  1.59302e-04 -4.38795e-05
      Nb -2.08844e-04 -2.70074e-04 -5.62996e-05
      Nb -1.30668e-04 -4.16497e-05 -2.37375e-04
      Nb  6.20651e-04 -1.23544e-04 -8.37521e-05
      Li -1.05226e-04 -8.72119e-04  9.19898e-04
      Li -1.17736e-03 -9.81051e-04  8.20064e-04
      Li  6.51263e-04 -6.35107e-04  4.18124e-05
      Li  6.22782e-04  2.81895e-04  8.82199e-04
      Li  1.01509e-03 -6.02901e-04 -1.90181e-04
      Li -1.28452e-03 -6.71826e-04 -7.67706e-04
       O -4.52639e-04  6.50920e-04 -1.70566e-04
       O -5.52119e-04  4.49723e-04  1.20085e-03
       O  7.44838e-04 -2.38032e-04  7.01834e-05
       O  3.35668e-04 -2.21686e-04  4.18974e-04
       O -8.93032e-04 -3.55945e-04  3.69269e-04
       O -5.47261e-04 -2.29274e-04 -2.83544e-04
       O  4.00739e-04  3.89492e-04  5.79567e-04
       O  1.30576e-04  4.96968e-04 -5.90406e-04
       O -4.05224e-04  4.83181e-04  1.28364e-04
       O -1.14651e-03 -2.09340e-04  6.88784e-04
       O -1.29558e-04 -8.64485e-04 -1.08887e-04
       O  7.73870e-04 -3.79523e-04 -2.09790e-04
       O -3.34813e-04 -1.52728e-04  3.07486e-04
       O -7.51274e-04  5.86334e-04 -7.67872e-04
       O -3.66989e-04 -2.95465e-04 -2.62038e-04
       O -1.63506e-04 -3.87754e-04  3.72824e-04
       O -3.54335e-04 -8.62554e-04  1.06963e-04
       O  9.69424e-05  6.86556e-04  5.96886e-04
30
# CELL(abcABC):    9.58988     9.58988    25.88886    90.00002    89.99998   120.00001  Step:          10  Bead:       0 velocities{atomic_unit}  cell{atomic_unit}
      Nb  1.90036e-04  5.30131e-04 -1.85630e-04
      Nb -3.28322e-05  1.71395e-05 -8.22296e-05
      Nb  9.31975e-05  1.08682e-04  2.62331e-04
      Nb -2.17545e-04 -3.03275e-04 -2.10442e-04
      Nb -2.14930e-04  1.50160e-04 -2.42322e-04
      Nb  6.18240e-04  5.20961e-05  2.11542e-04
      Li  1.39784e-04 -3.79096e-04  2.92331e-04
      Li -9.28246e-04 -1.15168e-04  1.61407e-03
      Li  3.60401e-04 -7.31455e-04  6.65718e-04
      Li  1.18645e-03  1.54335e-04  6.31062e-04
      Li  2.08386e-04 -1.71835e-03  8.37808e-06
      Li -1.52443e-04  6.75802e-05 -1.88366e-04
       O  2.52145e-04  2.09990e-04  4.95184e-05
       O -7.13126e-04  3.01541e-04  3.28808e-04
       O  3.93815e-04 -2.42941e-04 -8.24371e-05
       O  3.11374e-04  3.84789e-04  5.62707e-04
       O -8.85430e-04  4.98333e-05  2.68245e-04
       O -4.51277e-04 -2.53204e-04  3.91889e-05
       O  1.35228e-04  3.39048e-04  1.78426e-04
       O -9.78453e-05 -6.62808e-06 -3.24779e-04
       O -3.25602e-04  4.38257e-04  1.85836e-04
       O -7.25322e-04 -2.29961e-04 -1.43543e-04
       O -1.02498e-04 -7.87462e-04  2.47267e-04
       O  4.85711e-04 -4.50867e-04 -5.07622e-04
       O -1.24984e-04  1.46769e-04  4.23100e-04
       O -6.54958e-04  3.58805e-04 -8.75262e-04
       O -2.56383e-04 -4.31027e-04 -3.50194e-04
       O -9.01907e-05 -2.07828e-04 -2.30293e-04
       O -1.09884e-04 -1.46607e-03 -1.94967e-04
       O  7.31909e-05 -1.94523e-04  5.47300e-04
30
# CELL(abcABC):    9.58988     9.58988    25.88886    90.00002    89.99998   120.00001  Step:          11  Bead:       0 velocities{atomic_unit}  cell{atomic_unit}
      Nb  7.69175e-05  3.76849e-04 -2.06154e-04
      Nb -2.00824e-04 -6.39590e-05  7.34272e-05
      Nb  2.19758e-04  7.93107e-05  8.07355e-05
      Nb -4.20060e-05 -1.58099e-04 -6.77988e-05
      Nb -3.57358e-05  2.06214e-04 -2.62172e-04
      Nb  4.27178e-04  1.01389e-04 -7.24250e-06
      Li  6.42955e-05 -1.18814e-03  5.32397e-04
      Li -1.33112e-03 -4.75146e-04  9.05878e-04
      Li -3.65857e-05 -4.50305e-05  5.02642e-04
      Li  5.02082e-04  6.32281e-04  4.16244e-04
      Li  4.45221e-04 -1.42307e-03 -1.01496e-03
      Li -8.80726e-04 -1.95544e-04 -6.26140e-04
       O -7.23005e-05 -5.49300e-05  5.22481e-04
       O -4.04438e-04  2.91355e-04  1.03332e-03
       O  2.97103e-04 -2.96633e-04  3.05829e-04
       O -3.21921e-05  6.15238e-05 -2.55978e-05
       O -7.24433e-04 -2.96933e-04  3.15631e-04
       O -5.99050e-04 -6.28785e-04  2.03527e-04
       O  7.82957e-05  3.10694e-04  7.31155e-04
       O -6.46244e-05 -7.07386e-04 -2.56604e-04
       O  4.08192e-04  3.26865e-05  1.96290e-04
       O -5.48030e-04 -3.01942e-04  3.08258e-04
       O -7.03386e-05 -6.62018e-04  1.18005e-04
       O  8.96847e-04 -6.72423e-04 -8.08635e-04
       O -2.95457e-04  5.62913e-04 -3.15928e-04
       O -1.86725e-04  8.71675e-04 -5.17806e-04
       O -1.72331e-04  4.92333e-04 -3.99899e-04
       O  3.04092e-04 -2.40160e-04 -5.67377e-05
       O -5.82564e-04 -5.87133e-04 -2.64729e-04
       O -2.81197e-04 -1.51429e-04  8.60848e-04
30
# CELL(abcABC):    9.58988     9.58988    25.88886    90.00002    89.99998   120.00001  Step:          12  Bead:       0 velocities{atomic_unit}  cell{atomic_unit}
      Nb -2.55500e-05  9.80929e-05 -5.92215e-05
      Nb -3.00435e-04  1.90826e-04  6.14043e-05
      Nb  2.28106e-04 -1.53736e-05  1.79360e-04
      Nb -1.82103e-04 -2.04453e-04 -7.38093e-05
      Nb -5.90778e-05 -1.67081e-05 -2.33128e-04
      Nb  4.44894e-04  1.44643e-04  3.30888e-04
      Li -4.66684e-04 -1.05319e-03  1.87296e-04
      Li -1.83927e-03 -1.26917e-04  3.61089e-04
      Li  5.60992e-04  1.75737e-04  8.02701e-04
      Li  4.05754e-04  1.09776e-04  2.29446e-04
      Li  1.05277e-03 -1.76299e-03 -5.09056e-04
      Li -1.08164e-03  5.66539e-04 -3.76862e-04
       O  6.48872e-04 -1.09200e-04 -7.94002e-05
       O -2.09519e-04 -1.86131e-04  2.49046e-05
       O  1.10548e-03  1.40937e-04  3.13567e-04
       O  7.16552e-04 -8.80840e-05  4.14895e-04
       O -6.68162e-05 -1.77801e-04  2.04918e-04
       O -1.16983e-03 -4.96144e-04 -5.63682e-04
       O  2.41355e-04  2.78124e-04  3.49166e-04
       O -1.35669e-04  1.86441e-04 -6.32998e-04
       O  1.41024e-04  3.87029e-04 -8.74015e-04
       O -4.05954e-04 -5.49853e-04 -3.34491e-05
       O -5.04749e-04 -8.50924e-05  2.50781e-04
       O  9.58555e-04 -1.83330e-04 -2.29365e-04
       O -1.45361e-04  1.60036e-04 -3.39140e-06
       O -4.47970e-04  2.27516e-04 -9.82870e-04
       O -1.59204e-04  7.22271e-04 -8.00665e-05
       O  3.77620e-05  2.13858e-04 -3.35050e-04
       O -5.40852e-04 -8.41120e-04  1.42506e-04
       O -8.47303e-05  1.63593e-04  6.18933e-04
30
# CELL(abcABC):    9.58988     9.58988    25.88886    90.00002    89.99998   120.00001  Step:          13  Bead:       0 velocities{atomic_unit}  cell{atomic_unit}
      Nb  2.45565e-05  2.04444e-04 -4.80213e-05
      Nb -2.28950e-04 -1.79736e-04  1.08803e-04
      Nb  1.77643e-04  1.43184e-05 -2.43950e-06
      Nb -2.21871e-04 -7.15665e-05  9.79510e-05
      Nb -1.64766e-04 -1.39456e-04 -4.76621e-04
      Nb  4.83837e-04  1.57504e-04  2.41097e-05
      Li -3.69150e-05 -1.10911e-03  7.20766e-05
      Li -2.06965e-03 -3.80711e-04  1.49180e-03
      Li  1.78670e-03 -1.20159e-04  4.18040e-04
      Li  6.36690e-04  8.82250e-04  2.00612e-04
      Li  1.11767e-03 -1.36772e-03 -6.47191e-04
      Li -7.86249e-04  3.43804e-04  3.00655e-04
       O  3.33199e-04 -1.38729e-04  3.29131e-04
       O  6.96404e-07  2.53050e-04  3.33681e-04
       O  8.29371e-04 -1.14334e-04  4.69799e-04
       O  1.09092e-03  4.95351e-04  1.85143e-04
       O -6.61894e-04  1.07850e-03 -8.20542e-05
       O -1.77742e-03 -3.43520e-05  4.91658e-04
       O  4.35915e-04  2.76286e-04 -5.76206e-05
       O -3.03876e-04  4.83149e-05 -8.44144e-04
       O  3.14237e-04  4.78033e-04 -1.58950e-04
       O -7.92170e-04 -4.56202e-04  1.95349e-04
       O -1.71561e-04 -3.35888e-04  1.77369e-04
       O  7.85460e-04 -4.94639e-04 -6.68990e-04
       O  6.38600e-04  7.14531e-04  6.76322e-04
       O -1.82614e-04  9.06457e-04 -9.41453e-04
       O -6.94901e-04 -8.01796e-05  6.71639e-05
       O -3.77229e-04 -1.17323e-03  2.87428e-05
       O -5.30174e-04 -6.23030e-04  2.43790e-05
       O  3.73125e-04  4.41200e-05  6.98069e-04
30
# CELL(abcABC):    9.58988     9.58988    25.88886    90.00002    89.99998   120.00001  Step:          14  Bead:       0 velocities{atomic_unit}  cell{atomic_unit}
      Nb -2.73828e-05  2.14017e-04 -1.82478e-04
      Nb -1.22209e-04 -3.52388e-05  9.06328e-05
      Nb  2.57128e-04 -1.26649e-04  1.96671e-04
      Nb -1.47853e-04 -2.44482e-04  4.22166e-05
      Nb -1.05713e-04 -3.39835e-05 -1.17721e-04
      Nb  3.26175e-04  1.79828e-04  5.81304e-05
      Li  1.67877e-04 -1.40281e-03 -5.44995e-04
      Li -1.10026e-03 -1.16212e-03  7.94785e-04
      Li  4.47970e-04  6.71479e-04  6.88936e-04
      Li  4.67447e-04  5.44753e-04  4.49978e-04
      Li  6.68138e-04 -6.55660e-04 -8.30437e-04
      Li -8.29149e-04  6.61388e-04 -1.00051e-04
       O  1.64840e-04  2.96257e-04 -7.12887e-04
       O -6.84254e-05  4.65077e-04  3.21829e-04
       O  3.21105e-04 -1.80638e-04  7.86622e-04
       O  6.98457e-04  8.12348e-06 -2.58033e-04
       O -6.27376e-04  2.99773e-04 -3.38163e-04
       O -1.37340e-03 -2.60302e-04  5.10979e-04
       O -7.51753e-04  3.46466e-04 -1.60702e-04
       O  7.30311e-05  2.11943e-04 -3.12205e-04
       O -5.50985e-05  5.83396e-04 -1.61576e-04
       O -1.13339e-03 -1.54317e-04 -2.89329e-04
       O  2.08003e-04  9.03232e-06 -6.57074e-05
       O  9.89721e-04 -7.91925e-04 -2.83620e-04
       O  3.24616e-04  5.13171e-04  3.69692e-04
       O -5.66417e-04  4.40752e-04 -4.23430e-05
       O  7.83778e-04  4.18450e-04 -3.85092e-04
       O -1.67972e-04 -7.73759e-04 -1.22183e-04
       O -2.55380e-04 -8.58969e-04 -3.64308e-05
       O  4.66791e-04  2.80155e-04  4.72541e-04
30
# CELL(abcABC):    9.58988     9.58988    25.88886    90.00002    89.99998   120.00001  Step:          15  Bead:       0 velocities{atomic_unit}  cell{atomic_unit}
      Nb  8.12530e-06  3.76623e-04 -2.94984e-05
      Nb  5.22596e-05 -3.42311e-05  9.96966e-05
      Nb -8.48483e-07 -2.74711e-04 -1.34254e-04
      Nb -4.14979e-05 -1.65951e-04  3.23088e-05
      Nb -1.36764e-04  6.94246e-06 -3.10941e-04
      Nb  4.01449e-04  1.21462e-04 -7.43201e-05
      Li  5.06023e-05 -1.80429e-03  6.67477e-04
      Li -1.38719e-03  1.84954e-05  1.05488e-03
      Li  9.83004e-04 -5.91261e-04  5.11235e-04
      Li  5.34418e-04  1.29321e-03  9.37295e-04
      Li  6.87749e-04 -4.42590e-04 -2.58670e-04
      Li  5.93669e-04 -1.87795e-04 -9.64039e-04
       O -9.10173e-04  2.93520e-04  5.58319e-04
       O -3.37446e-04  3.22365e-04 -2.87410e-04
       O  1.24579e-04 -3.96044e-04  9.48685e-04
       O  4.59566e-04  1.95598e-04 -5.02809e-04
       O -2.72505e-04  5.66675e-04  1.87123e-04
       O -1.00187e-03  3.10504e-04 -3.28682e-04
       O -3.18067e-04  7.11098e-04 -1.52146e-04
       O  4.33132e-05 -6.48357e-04  4.61872e-04
       O -2.07569e-04 -1.35485e-05 -2.67974e-04
       O -1.06689e-03 -1.70895e-04  1.12531e-04
       O  3.42905e-04  4.15121e-04  1.29727e-04
       O  7.50648e-04  6.98824e-05 -4.31445e-04
       O  6.06991e-04  4.49547e-04  6.63449e-04
       O -2.35050e-04  2.80689e-04 -3.03252e-04
       O -3.60493e-04 -9.51019e-04  2.80780e-04
       O -2.23862e-04 -5.98188e-04  3.93193e-05
       O -2.50864e-04 -7.65412e-04 -1.95521e-04
       O  5.80677e-04  4.97163e-04  6.63768e-04
30
# CELL(abcABC):    9.58988     9.58988    25.88886    90.00002    89.99998   120.00001  Step:          16  Bead:       0 velocities{atomic_unit}  cell{atomic_unit}
      Nb -3.74822e-05  3.73854e-04 -1.41700e-04
      Nb -1.82486e-04  6.33415e-05  3.70274e-04
      Nb  7.60565e-05 -2.18855e-05 -1.89157e-04
      Nb -2.81337e-04 -1.31460e-04 -4.67146e-05
      Nb -7.89139e-07  1.73677e-04 -3.00305e-04
      Nb  5.00620e-04 -1.10098e-04  1.14590e-04
      Li  8.28658e-05 -1.16251e-03 -5.34456e-04
      Li -1.52851e-03 -6.63056e-04  1.44492e-03
      Li  2.33254e-04 -6.70708e-04 -7.46714e-04
      Li -3.63555e-04  1.40777e-03  4.66598e-04
      Li  6.86411e-04 -1.79928e-03 -2.34939e-04
      Li -1.11674e-03 -6.48088e-04 -4.54902e-04
       O  1.25625e-04  9.82289e-05  3.61730e-04
       O -4.60051e-04  2.79501e-04  3.82190e-04
       O  7.88572e-04 -2.85022e-04  2.42352e-04
       O  5.14258e-04  8.38236e-04  1.37108e-04
       O  3.60420e-04 -1.31556e-04 -4.24369e-04
       O -3.38514e-04 -1.90047e-04  1.32791e-04
       O  4.58034e-05  1.62637e-04 -1.97263e-04
       O  6.85777e-05  3.84930e-05  1.99907e-04
       O -3.92052e-04  5.99319e-04 -3.15776e-04
       O -4.36830e-04  1.58467e-04  9.29765e-05
       O -3.94504e-04 -3.84096e-04 -9.00724e-05
       O  1.08038e-03 -1.24458e-03 -4.57088e-06
       O  5.05063e-04  3.55505e-04  2.36182e-04
       O -9.89252e-04  2.14510e-04 -4.69896e-04
       O  2.53289e-05 -3.85155e-04  3.73769e-04
       O -1.79422e-05 -3.73760e-04 -5.10829e-05
       O -3.29555e-04 -6.73581e-04 -3.95130e-04
       O  2.81961e-04  4.39388e-04  9.35766e-04
30
# CELL(abcABC):    9.58988     9.58988    25.88886    90.00002    89.99998   120.00001  Step:          17  Bead:       0 velocities{atomic_unit}  cell{atomic_unit}
      Nb -1.69948e-04  1.48783e-04 -1.13166e-05
      Nb  2.23770e-04  2.85161e-04  1.82644e-04
      Nb  8.60725e-05 -1.32677e-04 -1.28256e-04
      Nb -2.79800e-04 -1.12214e-04 -7.34921e-05
      Nb -2.61320e-04  3.14926e-04 -1.05593e-04
      Nb  3.27823e-04 -8.20786e-05  5.08836e-05
      Li  1.17884e-04 -1.44697e-03 -6.10225e-04
      Li -1.47224e-03 -2.08524e-04  8.99640e-05
      Li -1.10155e-03 -4.17330e-04  8.85171e-05
      Li  8.67912e-04  2.02097e-04  8.83093e-04
      Li  5.77809e-04 -1.85905e-03  5.13703e-04
      Li  1.87752e-04  1.48505e-04 -2.03041e-04
       O  4.92356e-04  1.01636e-03  2.33915e-04
       O  1.47532e-05  2.71314e-04  9.06677e-04
       O  5.11488e-04 -5.24204e-04  4.69343e-04
       O  1.18394e-04  3.48565e-05 -3.05658e-04
       O  1.70438e-04  3.96584e-05 -4.97326e-04
       O -2.26018e-04 -4.31621e-04 -7.38046e-05
       O -8.65403e-05  6.09862e-04 -4.13971e-04
       O  1.39711e-04  3.38428e-04 -3.03653e-04
       O -3.98610e-05  2.33470e-04 -2.41654e-04
       O -6.05908e-04 -3.48658e-04  9.43993e-05
       O -1.68932e-04 -5.23781e-04  4.82165e-04
       O  7.20975e-04 -2.26054e-04 -1.16827e-03
       O  2.09700e-04  2.63836e-04  6.60499e-04
       O -5.11681e-04 -1.89554e-04 -8.88415e-04
       O -1.67930e-04 -7.06977e-04  3.02908e-04
       O  2.20705e-04 -7.52334e-04  3.33703e-04
       O -6.52093e-04 -2.68070e-04 -8.36146e-05
       O  6.43474e-04  2.67202e-04  6.56520e-04
30
# CELL(abcABC):    9.58988     9.58988    25.88886    90.00002    89.99998   120.00001  Step:          18  Bead:       0 velocities{atomic_unit}  cell{atomic_unit}
      Nb  2.64115e-05 -5.98172e-05 -1.43247e-05
      Nb  1.45621e-04  8.89867e-05  2.18243e-04
      Nb  1.69165e-04  4.95961e-05  9.05034e-05
      Nb -1.10968e-04 -5.67417e-05 -3.52418e-04
      Nb -1.55762e-04  1.62672e-04 -2.53647e-04
      Nb  2.77803e-04  5.56466e-05  6.05196e-06
      Li  8.03648e-05 -1.89796e-03  4.03696e-04
      Li -1.37906e-03 -4.97981e-04 -1.47655e-05
      Li -5.85691e-04 -1.01437e-03  1.35179e-04
      Li  8.41906e-04  2.00469e-04  4.99678e-04
      Li  7.54360e-04 -4.84627e-04  3.64699e-04
      Li  3.10819e-04 -1.20967e-04  2.56746e-04
       O  3.14023e-04  3.49087e-04 -5.07736e-04
       O -1.00996e-04  2.67777e-04  3.32719e-04
       O -6.51593e-05 -6.79532e-04  5.34741e-04
       O  3.62880e-04  1.81725e-04 -6.46861e-04
       O -2.70055e-04  2.76693e-04  2.49753e-04
       O -7.70888e-04 -6.32818e-04  4.50622e-04