30
# CELL(abcABC):    9.58988     9.58988    25.88886    90.00002    89.99998   120.00001  Step:           0  Bead:       0 positions{atomic_unit}  cell{atomic_unit}
      Nb  9.33867e-07  1.71897e-05  2.74699e-02
      Nb -2.20985e-06  4.43240e-06  1.29719e+01
      Nb  4.79494e+00  2.76835e+00  8.65710e+00
      Nb  4.79496e+00  2.76838e+00  2.16015e+01
      Nb  4.24677e-06  5.53673e+00  1.72867e+01
      Nb -1.33924e-06  5.53672e+00  4.34229e+00
      Li -1.37153e-05 -1.14201e-05  5.63990e+00
      Li  8.72707e-06  1.63813e-05  1.85842e+01
      Li  4.79493e+00  2.76839e+00  1.42694e+01
      Li  4.79494e+00  2.76835e+00  1.32506e+00
      Li  8.84271e-06  5.53672e+00  2.28990e+01
      Li  6.36170e-06  5.53670e+00  9.95471e+00
       O -1.24954e+00  2.65900e+00  2.66594e+00
       O  3.11694e+00  5.89343e+00  2.66593e+00
       O -1.86740e+00  8.05770e+00  2.66593e+00
       O  1.86741e+00  8.05773e+00  1.56103e+01
       O  1.24954e+00  2.65902e+00  1.56103e+01
       O -3.11695e+00  5.89346e+00  1.56103e+01
       O  3.54539e+00  5.42735e+00  1.12955e+01
       O  3.11695e+00  3.56705e-01  1.12955e+01
       O  7.72248e+00  2.52100e+00  1.12955e+01
       O  1.86741e+00  2.52099e+00  2.42400e+01
       O  6.04450e+00  5.42738e+00  2.42400e+01
       O  6.47296e+00  3.56725e-01  2.42400e+01
       O -1.24952e+00  8.19574e+00  1.99251e+01
       O -1.67798e+00  3.12510e+00  1.99251e+01
       O  2.92755e+00  5.28936e+00  1.99251e+01
       O -2.92756e+00  5.28933e+00  6.98072e+00
       O  1.24954e+00  8.19570e+00  6.98074e+00
       O  1.67799e+00  3.12506e+00  6.98074e+00
30
# CELL(abcABC):    9.58988     9.58988    25.88886    90.00002    89.99998   120.00001  Step:           1  Bead:       0 positions{atomic_unit}  cell{atomic_unit}
      Nb -5.21283e-03  5.67202e-03  2.09690e-02
      Nb -4.04066e-03  1.22142e-02  1.29684e+01
      Nb  4.79806e+00  2.77007e+00  8.65812e+00
      Nb  4.80491e+00  2.77113e+00  2.15932e+01
      Nb -1.46692e-03  5.53243e+00  1.72813e+01
      Nb  9.45209e-03  5.53681e+00  4.34879e+00
      Li  2.26479e-02 -3.19183e-02  5.64707e+00
      Li -5.68528e-02 -2.42234e-02  1.86189e+01
      Li  4.85001e+00  2.75019e+00  1.43070e+01
      Li  4.78451e+00  2.82143e+00  1.35395e+00
      Li -9.42565e-03  5.51243e+00  2.29011e+01
      Li  1.24907e-02  5.51656e+00  9.95631e+00
       O -1.25103e+00  2.64738e+00  2.67735e+00
       O  3.11473e+00  5.88327e+00  2.70437e+00
       O -1.86463e+00  8.05900e+00  2.65042e+00
       O  1.85960e+00  8.05761e+00  1.56156e+01
       O  1.24860e+00  2.69116e+00  1.56240e+01
       O -3.15963e+00  5.88122e+00  1.55968e+01
       O  3.55511e+00  5.45836e+00  1.13041e+01
       O  3.11756e+00  3.60413e-01  1.13024e+01
       O  7.72463e+00  2.53103e+00  1.13039e+01
       O  1.85490e+00  2.49583e+00  2.42491e+01
       O  5.99594e+00  5.40260e+00  2.42340e+01
       O  6.50152e+00  3.16524e-01  2.42470e+01
       O -1.24337e+00  8.16764e+00  1.99254e+01
       O -1.72108e+00  3.12441e+00  1.99006e+01
       O  2.96805e+00  5.31780e+00  1.99220e+01
       O -2.91681e+00  5.27378e+00  6.96585e+00
       O  1.23900e+00  8.16296e+00  6.97665e+00
       O  1.67218e+00  3.14303e+00  6.99897e+00
30
# CELL(abcABC):    9.58988     9.58988    25.88886    90.00002    89.99998   120.00001  Step:           2  Bead:       0 positions{atomic_unit}  cell{atomic_unit}
      Nb -1.04266e-02  1.13268e-02  1.44681e-02
      Nb -8.07912e-03  2.44239e-02  1.29650e+01
      Nb  4.80119e+00  2.77178e+00  8.65914e+00
      Nb  4.81487e+00  2.77389e+00  2.15849e+01
      Nb -2.93809e-03  5.52812e+00  1.72758e+01
      Nb  1.89055e-02  5.53691e+00  4.35528e+00
      Li  4.53095e-02 -6.38253e-02  5.65425e+00
      Li -1.13714e-01 -4.84632e-02  1.86536e+01
      Li  4.90508e+00  2.73199e+00  1.43446e+01
      Li  4.77407e+00  2.87452e+00  1.38284e+00
      Li -1.88601e-02  5.48814e+00  2.29032e+01
      Li  2.49749e-02  5.49641e+00  9.95791e+00
       O -1.25252e+00  2.63575e+00  2.68876e+00
       O  3.11251e+00  5.87310e+00  2.74282e+00
       O -1.86186e+00  8.06029e+00  2.63491e+00
       O  1.85180e+00  8.05748e+00  1.56209e+01
       O  1.24766e+00  2.72330e+00  1.56377e+01
       O -3.20231e+00  5.86898e+00  1.55833e+01
       O  3.56483e+00  5.48937e+00  1.13126e+01
       O  3.11817e+00  3.64121e-01  1.13092e+01
       O  7.72677e+00  2.54106e+00  1.13122e+01
       O  1.84240e+00  2.47068e+00  2.42582e+01
       O  5.94738e+00  5.37782e+00  2.42280e+01
       O  6.53007e+00  2.76322e-01  2.42540e+01
       O -1.23722e+00  8.13954e+00  1.99257e+01
       O -1.76418e+00  3.12372e+00  1.98761e+01
       O  3.00854e+00  5.34624e+00  1.99189e+01
       O -2.90605e+00  5.25822e+00  6.95097e+00
       O  1.22845e+00  8.13021e+00  6.97255e+00
       O  1.66638e+00  3.16100e+00  7.01720e+00
30
# CELL(abcABC):    9.58988     9.58988    25.88886    90.00002    89.99998   120.00001  Step:           3  Bead:       0 positions{atomic_unit}  cell{atomic_unit}
      Nb -1.56403e-02  1.69817e-02  7.96720e-03
      Nb -1.21176e-02  3.66337e-02  1.29615e+01
      Nb  4.80432e+00  2.77350e+00  8.66017e+00
      Nb  4.82483e+00  2.77665e+00  2.15766e+01
      Nb -4.40926e-03  5.52381e+00  1.72704e+01
      Nb  2.83590e-02  5.53701e+00  4.36178e+00
      Li  6.79712e-02 -9.57322e-02  5.66143e+00
      Li -1.70576e-01 -7.27029e-02  1.86883e+01
      Li  4.96016e+00  2.71379e+00  1.43822e+01
      Li  4.76364e+00  2.92760e+00  1.41173e+00
      Li -2.82946e-02  5.46385e+00  2.29054e+01
      Li  3.74592e-02  5.47627e+00  9.95951e+00
       O -1.25401e+00  2.62413e+00  2.70017e+00
       O  3.11030e+00  5.86293e+00  2.78126e+00
       O -1.85909e+00  8.06158e+00  2.61941e+00
       O  1.84399e+00  8.05736e+00  1.56261e+01
       O  1.24672e+00  2.75545e+00  1.56514e+01
       O -3.24498e+00  5.85674e+00  1.55698e+01
       O  3.57454e+00  5.52038e+00  1.13211e+01
       O  3.11877e+00  3.67829e-01  1.13160e+01
       O  7.72892e+00  2.55109e+00  1.13205e+01
       O  1.82989e+00  2.44552e+00  2.42673e+01
       O  5.89881e+00  5.35304e+00  2.42220e+01
       O  6.55863e+00  2.36121e-01  2.42610e+01
       O -1.23107e+00  8.11144e+00  1.99260e+01
       O -1.80728e+00  3.12303e+00  1.98515e+01
       O  3.04903e+00  5.37469e+00  1.99158e+01
       O -2.89530e+00  5.24267e+00  6.93609e+00
       O  1.21791e+00  8.09746e+00  6.96846e+00
       O  1.66058e+00  3.17897e+00  7.03543e+00
30
# CELL(abcABC):    9.58988     9.58988    25.88886    90.00002    89.99998   120.00001  Step:           4  Bead:       0 positions{atomic_unit}  cell{atomic_unit}
      Nb -2.08541e-02  2.26365e-02  1.46628e-03
      Nb -1.61560e-02  4.88434e-02  1.29580e+01
      Nb  4.80744e+00  2.77522e+00  8.66119e+00
      Nb  4.83478e+00  2.77941e+00  2.15683e+01
      Nb -5.88043e-03  5.51951e+00  1.72649e+01
      Nb  3.78124e-02  5.53711e+00  4.36828e+00
      Li  9.06328e-02 -1.27639e-01  5.66861e+00
      Li -2.27437e-01 -9.69427e-02  1.87230e+01
      Li  5.01524e+00  2.69559e+00  1.44198e+01
      Li  4.75321e+00  2.98068e+00  1.44062e+00
      Li -3.77291e-02  5.43956e+00  2.29075e+01
      Li  4.99435e-02  5.45612e+00  9.96110e+00
       O -1.25550e+00  2.61251e+00  2.71158e+00
       O  3.10809e+00  5.85277e+00  2.81970e+00
       O -1.85632e+00  8.06287e+00  2.60390e+00
       O  1.83619e+00  8.05723e+00  1.56314e+01
       O  1.24578e+00  2.78759e+00  1.56650e+01
       O -3.28766e+00  5.84451e+00  1.55563e+01
       O  3.58426e+00  5.55139e+00  1.13296e+01
       O  3.11938e+00  3.71537e-01  1.13228e+01
       O  7.73107e+00  2.56113e+00  1.13288e+01
       O  1.81738e+00  2.42036e+00  2.42765e+01
       O  5.85025e+00  5.32826e+00  2.42161e+01
       O  6.58718e+00  1.95919e-01  2.42680e+01
       O -1.22492e+00  8.08334e+00  1.99263e+01
       O -1.85038e+00  3.12234e+00  1.98270e+01
       O  3.08953e+00  5.40313e+00  1.99126e+01
       O -2.88455e+00  5.22711e+00  6.92121e+00
       O  1.20737e+00  8.06471e+00  6.96437e+00
       O  1.65477e+00  3.19694e+00  7.05366e+00
30
# CELL(abcABC):    9.58988     9.58988    25.88886    90.00002    89.99998   120.00001  Step:           5  Bead:       0 positions{atomic_unit}  cell{atomic_unit}
      Nb -2.60679e-02  2.82913e-02 -5.03463e-03
      Nb -2.01945e-02  6.10532e-02  1.29546e+01
      Nb  4.81057e+00  2.77693e+00  8.66221e+00
      Nb  4.84474e+00  2.78217e+00  2.15600e+01
      Nb -7.35160e-03  5.51520e+00  1.72595e+01
      Nb  4.72658e-02  5.53720e+00  4.37477e+00
      Li  1.13294e-01 -1.59546e-01  5.67578e+00
      Li -2.84299e-01 -1.21182e-01  1.87577e+01
      Li  5.07032e+00  2.67740e+00  1.44574e+01
      Li  4.74277e+00  3.03377e+00  1.46950e+00
      Li -4.71636e-02  5.41527e+00  2.29096e+01
      Li  6.24278e-02  5.43598e+00  9.96270e+00
       O -1.25699e+00  2.60089e+00  2.72299e+00
       O  3.10587e+00  5.84260e+00  2.85815e+00
       O -1.85355e+00  8.06417e+00  2.58839e+00
       O  1.82838e+00  8.05710e+00  1.56367e+01
       O  1.24484e+00  2.81973e+00  1.56787e+01
       O -3.33034e+00  5.83227e+00  1.55427e+01
       O  3.59397e+00  5.58240e+00  1.13382e+01
       O  3.11999e+00  3.75245e-01  1.13296e+01
       O  7.73321e+00  2.57116e+00  1.13371e+01
       O  1.80487e+00  2.39520e+00  2.42856e+01
       O  5.80169e+00  5.30348e+00  2.42101e+01
       O  6.61574e+00  1.55718e-01  2.42750e+01
       O -1.21877e+00  8.05523e+00  1.99266e+01
       O -1.89348e+00  3.12165e+00  1.98024e+01
       O  3.13002e+00  5.43157e+00  1.99095e+01
       O -2.87380e+00  5.21155e+00  6.90633e+00
       O  1.19682e+00  8.03196e+00  6.96027e+00
       O  1.64897e+00  3.21491e+00  7.07189e+00
30
# CELL(abcABC):    9.58988     9.58988    25.88886    90.00002    89.99998   120.00001  Step:           6  Bead:       0 positions{atomic_unit}  cell{atomic_unit}
      Nb -3.12816e-02  3.39462e-02 -1.15355e-02
      Nb -2.42329e-02  7.32629e-02  1.29511e+01
      Nb  4.81370e+00  2.77865e+00  8.66323e+00
      Nb  4.85469e+00  2.78493e+00  2.15517e+01
      Nb -8.82276e-03  5.51090e+00  1.72540e+01
      Nb  5.67193e-02  5.53730e+00  4.38127e+00
      Li  1.35956e-01 -1.91453e-01  5.68296e+00
      Li -3.41161e-01 -1.45422e-01  1.87924e+01
      Li  5.12539e+00  2.65920e+00  1.44950e+01
      Li  4.73234e+00  3.08685e+00  1.49839e+00
      Li -5.65981e-02  5.39098e+00  2.29117e+01
      Li  7.49121e-02  5.41584e+00  9.96430e+00
       O -1.25848e+00  2.58927e+00  2.73440e+00
       O  3.10366e+00  5.83243e+00  2.89659e+00
       O -1.85078e+00  8.06546e+00  2.57288e+00
       O  1.82058e+00  8.05698e+00  1.56419e+01
       O  1.24390e+00  2.85188e+00  1.56924e+01
       O -3.37301e+00  5.82003e+00  1.55292e+01
       O  3.60369e+00  5.61341e+00  1.13467e+01
       O  3.12060e+00  3.78953e-01  1.13365e+01
       O  7.73536e+00  2.58119e+00  1.13455e+01
       O  1.79237e+00  2.37005e+00  2.42947e+01
       O  5.75313e+00  5.27871e+00  2.42041e+01
       O  6.64429e+00  1.15517e-01  2.42820e+01
       O -1.21262e+00  8.02713e+00  1.99269e+01
       O -1.93658e+00  3.12096e+00  1.97779e+01
       O  3.17052e+00  5.46002e+00  1.99064e+01
       O -2.86304e+00  5.19600e+00  6.89146e+00
       O  1.18628e+00  7.99921e+00  6.95618e+00
       O  1.64317e+00  3.23288e+00  7.09012e+00
30
# CELL(abcABC):    9.58988     9.58988    25.88886    90.00002    89.99998   120.00001  Step:           7  Bead:       0 positions{atomic_unit}  cell{atomic_unit}
      Nb -3.64954e-02  3.96010e-02 -1.80365e-02
      Nb -2.82714e-02  8.54726e-02  1.29476e+01
      Nb  4.81682e+00  2.78037e+00  8.66425e+00
      Nb  4.86465e+00  2.78769e+00  2.15433e+01
      Nb -1.02939e-02  5.50659e+00  1.72486e+01
      Nb  6.61727e-02  5.53740e+00  4.38777e+00
      Li  1.58618e-01 -2.23360e-01  5.69014e+00
      Li -3.98022e-01 -1.69662e-01  1.88271e+01
      Li  5.18047e+00  2.64100e+00  1.45326e+01
      Li  4.72191e+00  3.13994e+00  1.52728e+00
      Li -6.60326e-02  5.36670e+00  2.29139e+01
      Li  8.73964e-02  5.39569e+00  9.96590e+00
       O -1.25997e+00  2.57765e+00  2.74581e+00
       O  3.10145e+00  5.82227e+00  2.93504e+00
       O -1.84801e+00  8.06675e+00  2.55737e+00
       O  1.81277e+00  8.05685e+00  1.56472e+01
       O  1.24295e+00  2.88402e+00  1.57061e+01
       O -3.41569e+00  5.80779e+00  1.55157e+01
       O  3.61340e+00  5.64442e+00  1.13552e+01
       O  3.12121e+00  3.82661e-01  1.13433e+01
       O  7.73751e+00  2.59122e+00  1.13538e+01
       O  1.77986e+00  2.34489e+00  2.43038e+01
       O  5.70457e+00  5.25393e+00  2.41981e+01
       O  6.67285e+00  7.53154e-02  2.42891e+01
       O -1.20647e+00  7.99903e+00  1.99272e+01
       O -1.97968e+00  3.12027e+00  1.97534e+01
       O  3.21101e+00  5.48846e+00  1.99033e+01
       O -2.85229e+00  5.18044e+00  6.87658e+00
       O  1.17574e+00  7.96646e+00  6.95208e+00
       O  1.63736e+00  3.25084e+00  7.10835e+00
30
# CELL(abcABC):    9.58988     9.58988    25.88886    90.00002    89.99998   120.00001  Step:           8  Bead:       0 positions{atomic_unit}  cell{atomic_unit}
      Nb -4.17091e-02  4.52558e-02 -2.45374e-02
      Nb -3.23098e-02  9.76824e-02  1.29442e+01
      Nb  4.81995e+00  2.78208e+00  8.66527e+00
      Nb  4.87461e+00  2.79045e+00  2.15350e+01
      Nb -1.17651e-02  5.50228e+00  1.72431e+01
      Nb  7.56261e-02  5.53750e+00  4.39426e+00
      Li  1.81279e-01 -2.55267e-01  5.69732e+00
      Li -4.54884e-01 -1.93902e-01  1.88618e+01
      Li  5.23555e+00  2.62280e+00  1.45702e+01
      Li  4.71147e+00  3.19302e+00  1.55617e+00
      Li -7.54671e-02  5.34241e+00  2.29160e+01
      Li  9.98807e-02  5.37555e+00  9.96750e+00
       O -1.26146e+00  2.56602e+00  2.75722e+00
       O  3.09924e+00  5.81210e+00  2.97348e+00
       O -1.84525e+00  8.06805e+00  2.54187e+00
       O  1.80497e+00  8.05673e+00  1.56525e+01
       O  1.24201e+00  2.91616e+00  1.57197e+01
       O -3.45837e+00  5.79555e+00  1.55022e+01
       O  3.62312e+00  5.67543e+00  1.13638e+01
       O  3.12181e+00  3.86369e-01  1.13501e+01
       O  7.73965e+00  2.60126e+00  1.13621e+01
       O  1.76735e+00  2.31973e+00  2.43130e+01
       O  5.65601e+00  5.22915e+00  2.41922e+01
       O  6.70140e+00  3.51140e-02  2.42961e+01
       O -1.20032e+00  7.97093e+00  1.99275e+01
       O -2.02277e+00  3.11958e+00  1.97288e+01
       O  3.25151e+00  5.51690e+00  1.99001e+01
       O -2.84154e+00  5.16489e+00  6.86170e+00
       O  1.16519e+00  7.93371e+00  6.94799e+00
       O  1.63156e+00  3.26881e+00  7.12658e+00
30
# CELL(abcABC):    9.58988     9.58988    25.88886    90.00002    89.99998   120.00001  Step:           9  Bead:       0 positions{atomic_unit}  cell{atomic_unit}
      Nb -4.69229e-02  5.09106e-02 -3.10383e-02
      Nb -3.63483e-02  1.09892e-01  1.29407e+01
      Nb  4.82308e+00  2.78380e+00  8.66629e+00
      Nb  4.88456e+00  2.79320e+00  2.15267e+01
      Nb -1.32363e-02  5.49798e+00  1.72377e+01
      Nb  8.50796e-02  5.53759e+00  4.40076e+00
      Li  2.03941e-01 -2.87174e-01  5.70449e+00
      Li -5.11745e-01 -2.18142e-01  1.88965e+01
      Li  5.29063e+00  2.60460e+00  1.46078e+01
      Li  4.70104e+00  3.24611e+00  1.58506e+00
      Li -8.49016e-02  5.31812e+00  2.29181e+01
      Li  1.12365e-01  5.35540e+00  9.96910e+00
       O -1.26295e+00  2.55440e+00  2.76862e+00
       O  3.09702e+00  5.80193e+00  3.01192e+00
       O -1.84248e+00  8.06934e+00  2.52636e+00
       O  1.79716e+00  8.05660e+00  1.56577e+01
       O  1.24107e+00  2.94830e+00  1.57334e+01
       O -3.50105e+00  5.78332e+00  1.54887e+01
       O  3.63283e+00  5.70644e+00  1.13723e+01
       O  3.12242e+00  3.90077e-01  1.13569e+01
       O  7.74180e+00  2.61129e+00  1.13704e+01
       O  1.75485e+00  2.29458e+00  2.43221e+01
       O  5.60745e+00  5.20437e+00  2.41862e+01
       O  6.72996e+00 -5.08731e-03  2.43031e+01
       O -1.19417e+00  7.94283e+00  1.99278e+01
       O -2.06587e+00  3.11889e+00  1.97043e+01
       O  3.29200e+00  5.54535e+00  1.98970e+01
       O -2.83079e+00  5.14933e+00  6.84682e+00
       O  1.15465e+00  7.90097e+00  6.94390e+00
       O  1.62576e+00  3.28678e+00  7.14481e+00
30
# CELL(abcABC):    9.58988     9.58988    25.88886    90.00002    89.99998   120.00001  Step:          10  Bead:       0 positions{atomic_unit}  cell{atomic_unit}
      Nb -5.21367e-02  5.65655e-02 -3.75392e-02
      Nb -4.03868e-02  1.22102e-01  1.29372e+01
      Nb  4.82620e+00  2.78552e+00  8.66731e+00
      Nb  4.89452e+00  2.79596e+00  2.15184e+01
      Nb -1.47074e-02  5.49367e+00  1.72322e+01
      Nb  9.45330e-02  5.53769e+00  4.40726e+00
      Li  2.26603e-01 -3.19081e-01  5.71167e+00
      Li -5.68607e-01 -2.42381e-01  1.89312e+01
      Li  5.34570e+00  2.58641e+00  1.46454e+01
      Li  4.69060e+00  3.29919e+00  1.61395e+00
      Li -9.43361e-02  5.29383e+00  2.29203e+01
      Li  1.24849e-01  5.33526e+00  9.97070e+00
       O -1.26444e+00  2.54278e+00  2.78003e+00
       O  3.09481e+00  5.79177e+00  3.05037e+00
       O -1.83971e+00  8.07063e+00  2.51085e+00
       O  1.78936e+00  8.05648e+00  1.56630e+01
       O  1.24013e+00  2.98045e+00  1.57471e+01
       O -3.54372e+00  5.77108e+00  1.54751e+01
       O  3.64255e+00  5.73745e+00  1.13808e+01
       O  3.12303e+00  3.93785e-01  1.13638e+01
       O  7.74395e+00  2.62132e+00  1.13787e+01
       O  1.74234e+00  2.26942e+00  2.43312e+01
       O  5.55889e+00  5.17959e+00  2.41802e+01
       O  6.75851e+00 -4.52887e-02  2.43101e+01
       O -1.18802e+00  7.91473e+00  1.99281e+01
       O -2.10897e+00  3.11821e+00  1.96797e+01
       O  3.33249e+00  5.57379e+00  1.98939e+01
       O -2.82004e+00  5.13378e+00  6.83195e+00
       O  1.14411e+00  7.86822e+00  6.93980e+00
       O  1.61995e+00  3.30475e+00  7.16304e+00
30
# CELL(abcABC):    9.58988     9.58988    25.88886    90.00002    89.99998   120.00001  Step:          11  Bead:       0 positions{atomic_unit}  cell{atomic_unit}
      Nb -5.73504e-02  6.22203e-02 -4.40401e-02
      Nb -4.44252e-02  1.34312e-01  1.29338e+01
      Nb  4.82933e+00  2.78724e+00  8.66833e+00
      Nb  4.90447e+00  2.79872e+00  2.15101e+01
      Nb -1.61786e-02  5.48936e+00  1.72268e+01
      Nb  1.03986e-01  5.53779e+00  4.41375e+00
      Li  2.49264e-01 -3.50988e-01  5.71885e+00
      Li -6.25468e-01 -2.66621e-01  1.89659e+01
      Li  5.40078e+00  2.56821e+00  1.46830e+01
      Li  4.68017e+00  3.35227e+00  1.64283e+00
      Li -1.03771e-01  5.26954e+00  2.29224e+01
      Li  1.37334e-01  5.31511e+00  9.97230e+00
       O -1.26593e+00  2.53116e+00  2.79144e+00
       O  3.09260e+00  5.78160e+00  3.08881e+00
       O -1.83694e+00  8.07192e+00  2.49534e+00
       O  1.78155e+00  8.05635e+00  1.56683e+01
       O  1.23919e+00  3.01259e+00  1.57608e+01
       O -3.58640e+00  5.75884e+00  1.54616e+01
       O  3.65227e+00  5.76846e+00  1.13893e+01
       O  3.12364e+00  3.97493e-01  1.13706e+01
       O  7.74609e+00  2.63135e+00  1.13871e+01
       O  1.72983e+00  2.24426e+00  2.43404e+01
       O  5.51033e+00  5.15481e+00  2.41742e+01
       O  6.78707e+00 -8.54900e-02  2.43171e+01
       O -1.18187e+00  7.88662e+00  1.99284e+01
       O -2.15207e+00  3.11752e+00  1.96552e+01
       O  3.37299e+00  5.60223e+00  1.98908e+01
       O -2.80928e+00  5.11822e+00  6.81707e+00
       O  1.13356e+00  7.83547e+00  6.93571e+00
       O  1.61415e+00  3.32272e+00  7.18127e+00
30
# CELL(abcABC):    9.58988     9.58988    25.88886    90.00002    89.99998   120.00001  Step:          12  Bead:       0 positions{atomic_unit}  cell{atomic_unit}
      Nb -6.25642e-02  6.78751e-02 -5.05410e-02
      Nb -4.84637e-02  1.46521e-01  1.29303e+01
      Nb  4.83246e+00  2.78895e+00  8.66935e+00
      Nb  4.91443e+00  2.80148e+00  2.15018e+01
      Nb -1.76498e-02  5.48506e+00  1.72214e+01
      Nb  1.13440e-01  5.53789e+00  4.42025e+00
      Li  2.71926e-01 -3.82895e-01  5.72603e+00
      Li -6.82330e-01 -2.90861e-01  1.90006e+01
      Li  5.45586e+00  2.55001e+00  1.47206e+01
      Li  4.66974e+00  3.40536e+00  1.67172e+00
      Li -1.13205e-01  5.24525e+00  2.29245e+01
      Li  1.49818e-01  5.29497e+00  9.97389e+00
       O -1.26742e+00  2.51954e+00  2.80285e+00
       O  3.09038e+00  5.77143e+00  3.12726e+00
       O -1.83417e+00  8.07322e+00  2.47984e+00
       O  1.77375e+00  8.05623e+00  1.56735e+01
       O  1.23825e+00  3.04473e+00  1.57744e+01
       O -3.62908e+00  5.74660e+00  1.54481e+01
       O  3.66198e+00  5.79947e+00  1.13979e+01
       O  3.12425e+00  4.01201e-01  1.13774e+01
       O  7.74824e+00  2.64139e+00  1.13954e+01
       O  1.71733e+00  2.21910e+00  2.43495e+01
       O  5.46177e+00  5.13004e+00  2.41683e+01
       O  6.81562e+00 -1.25691e-01  2.43241e+01
       O -1.17572e+00  7.85852e+00  1.99287e+01
       O -2.19517e+00  3.11683e+00  1.96306e+01
       O  3.41348e+00  5.63068e+00  1.98876e+01
       O -2.79853e+00  5.10267e+00  6.80219e+00
       O  1.12302e+00  7.80272e+00  6.93161e+00
       O  1.60835e+00  3.34069e+00  7.19950e+00
30
# CELL(abcABC):    9.58988     9.58988    25.88886    90.00002    89.99998   120.00001  Step:          13  Bead:       0 positions{atomic_unit}  cell{atomic_unit}
      Nb -6.77780e-02  7.35300e-02 -5.70420e-02
      Nb -5.25021e-02  1.58731e-01  1.29268e+01
      Nb  4.83558e+00  2.79067e+00  8.67038e+00
      Nb  4.92438e+00  2.80424e+00  2.14935e+01
      Nb -1.91209e-02  5.48075e+00  1.72159e+01
      Nb  1.22893e-01  5.53798e+00  4.42675e+00
      Li  2.94587e-01 -4.14801e-01  5.73320e+00
      Li -7.39191e-01 -3.15101e-01  1.90353e+01
      Li  5.51093e+00  2.53181e+00  1.47582e+01
      Li  4.65930e+00  3.45844e+00  1.70061e+00
      Li -1.22640e-01  5.22096e+00  2.29267e+01
      Li  1.62302e-01  5.27482e+00  9.97549e+00
       O -1.26891e+00  2.50792e+00  2.81426e+00
       O  3.08817e+00  5.76127e+00  3.16570e+00
       O -1.83140e+00  8.07451e+00  2.46433e+00
       O  1.76594e+00  8.05610e+00  1.56788e+01
       O  1.23731e+00  3.07688e+00  1.57881e+01
       O -3.67176e+00  5.73436e+00  1.54346e+01
       O  3.67170e+00  5.83048e+00  1.14064e+01
       O  3.12485e+00  4.04909e-01  1.13842e+01
       O  7.75039e+00  2.65142e+00  1.14037e+01
       O  1.70482e+00  2.19395e+00  2.43586e+01
       O  5.41321e+00  5.10526e+00  2.41623e+01
       O  6.84418e+00 -1.65893e-01  2.43312e+01
       O -1.16957e+00  7.83042e+00  1.99290e+01
       O -2.23827e+00  3.11614e+00  1.96061e+01
       O  3.45398e+00  5.65912e+00  1.98845e+01
       O -2.78778e+00  5.08711e+00  6.78731e+00
       O  1.11248e+00  7.76997e+00  6.92752e+00
       O  1.60254e+00  3.35866e+00  7.21773e+00
30
# CELL(abcABC):    9.58988     9.58988    25.88886    90.00002    89.99998   120.00001  Step:          14  Bead:       0 positions{atomic_unit}  cell{atomic_unit}
      Nb -7.29917e-02  7.91848e-02 -6.35429e-02
      Nb -5.65406e-02  1.70941e-01  1.29234e+01
      Nb  4.83871e+00  2.79239e+00  8.67140e+00
      Nb  4.93434e+00  2.80700e+00  2.14852e+01
      Nb -2.05921e-02  5.47644e+00  1.72105e+01
      Nb  1.32347e-01  5.53808e+00  4.43324e+00
      Li  3.17249e-01 -4.46708e-01  5.74038e+00
      Li -7.96053e-01 -3.39340e-01  1.90700e+01
      Li  5.56601e+00  2.51361e+00  1.47958e+01
      Li  4.64887e+00  3.51153e+00  1.72950e+00
      Li -1.32074e-01  5.19667e+00  2.29288e+01
      Li  1.74786e-01  5.25468e+00  9.97709e+00
       O -1.27040e+00  2.49630e+00  2.82567e+00
       O  3.08596e+00  5.75110e+00  3.20414e+00
       O -1.82863e+00  8.07580e+00  2.44882e+00
       O  1.75814e+00  8.05597e+00  1.56841e+01
       O  1.23637e+00  3.10902e+00  1.58018e+01
       O -3.71443e+00  5.72213e+00  1.54210e+01
       O  3.68141e+00  5.86149e+00  1.14149e+01
       O  3.12546e+00  4.08617e-01  1.13910e+01
       O  7.75253e+00  2.66145e+00  1.14120e+01
       O  1.69231e+00  2.16879e+00  2.43677e+01
       O  5.36464e+00  5.08048e+00  2.41563e+01
       O  6.87273e+00 -2.06094e-01  2.43382e+01
       O -1.16342e+00  7.80232e+00  1.99293e+01
       O -2.28137e+00  3.11545e+00  1.95816e+01
       O  3.49447e+00  5.68756e+00  1.98814e+01
       O -2.77703e+00  5.07155e+00  6.77243e+00
       O  1.10193e+00  7.73722e+00  6.92343e+00
       O  1.59674e+00  3.37662e+00  7.23596e+00
30
# CELL(abcABC):    9.58988     9.58988    25.88886    90.00002    89.99998   120.00001  Step:          15  Bead:       0 positions{atomic_unit}  cell{atomic_unit}
      Nb -7.82055e-02  8.48396e-02 -7.00438e-02
      Nb -6.05790e-02  1.83151e-01  1.29199e+01
      Nb  4.84184e+00  2.79410e+00  8.67242e+00
      Nb  4.94430e+00  2.80976e+00  2.14769e+01
      Nb -2.20633e-02  5.47214e+00  1.72050e+01
      Nb  1.41800e-01  5.53818e+00  4.43974e+00
      Li  3.39911e-01 -4.78615e-01  5.74756e+00
      Li -8.52914e-01 -3.63580e-01  1.91047e+01
      Li  5.62109e+00  2.49542e+00  1.48334e+01
      Li  4.63844e+00  3.56461e+00  1.75839e+00
      Li -1.41509e-01  5.17238e+00  2.29309e+01
      Li  1.87271e-01  5.23453e+00  9.97869e+00
       O -1.27189e+00  2.48467e+00  2.83708e+00
       O  3.08375e+00  5.74093e+00  3.24259e+00
       O -1.82587e+00  8.07710e+00  2.43331e+00
       O  1.75033e+00  8.05585e+00  1.56893e+01
       O  1.23542e+00  3.14116e+00  1.58155e+01
       O -3.75711e+00  5.70989e+00  1.54075e+01
       O  3.69113e+00  5.89250e+00  1.14234e+01
       O  3.12607e+00  4.12325e-01  1.13979e+01
       O  7.75468e+00  2.67148e+00  1.14203e+01
       O  1.67981e+00  2.14363e+00  2.43769e+01
       O  5.31608e+00  5.05570e+00  2.41504e+01
       O  6.90129e+00 -2.46295e-01  2.43452e+01
       O -1.15727e+00  7.77422e+00  1.99296e+01
       O -2.32447e+00  3.11476e+00  1.95570e+01
       O  3.53497e+00  5.71601e+00  1.98783e+01
       O -2.76627e+00  5.05600e+00  6.75756e+00
       O  1.09139e+00  7.70447e+00  6.91933e+00
       O  1.59093e+00  3.39459e+00  7.25419e+00
30
# CELL(abcABC):    9.58988     9.58988    25.88886    90.00002    89.99998   120.00001  Step:          16  Bead:       0 positions{atomic_unit}  cell{atomic_unit}
      Nb -8.34192e-02  9.04944e-02 -7.65447e-02
      Nb -6.46175e-02  1.95360e-01  1.29164e+01
      Nb  4.84496e+00  2.79582e+00  8.67344e+00
      Nb  4.95425e+00  2.81252e+00  2.14685e+01
      Nb -2.35344e-02  5.46783e+00  1.71996e+01
      Nb  1.51254e-01  5.53828e+00  4.44624e+00
      Li  3.62572e-01 -5.10522e-01  5.75474e+00
      Li -9.09776e-01 -3.87820e-01  1.91394e+01
      Li  5.67617e+00  2.47722e+00  1.48710e+01
      Li  4.62800e+00  3.61770e+00  1.78728e+00
      Li -1.50943e-01  5.14809e+00  2.29331e+01
      Li  1.99755e-01  5.21439e+00  9.98029e+00
       O -1.27338e+00  2.47305e+00  2.84849e+00
       O  3.08153e+00  5.73077e+00  3.28103e+00
       O -1.82310e+00  8.07839e+00  2.41781e+00
       O  1.74253e+00  8.05572e+00  1.56946e+01
       O  1.23448e+00  3.17330e+00  1.58292e+01
       O -3.79979e+00  5.69765e+00  1.53940e+01
       O  3.70084e+00  5.92351e+00  1.14320e+01
       O  3.12668e+00  4.16033e-01  1.14047e+01
       O  7.75682e+00  2.68152e+00  1.14287e+01
       O  1.66730e+00  2.11847e+00  2.43860e+01
       O  5.26752e+00  5.03092e+00  2.41444e+01
       O  6.92985e+00 -2.86497e-01  2.43522e+01
       O -1.15112e+00  7.74612e+00  1.99299e+01
       O -2.36756e+00  3.11407e+00  1.95325e+01
       O  3.57546e+00  5.74445e+00  1.98751e+01
       O -2.75552e+00  5.04044e+00  6.74268e+00
       O  1.08085e+00  7.67173e+00  6.91524e+00
       O  1.58513e+00  3.41256e+00  7.27242e+00
30
# CELL(abcABC):    9.58988     9.58988    25.88886    90.00002    89.99998   120.00001  Step:          17  Bead:       0 positions{atomic_unit}  cell{atomic_unit}
      Nb -8.86330e-02  9.61493e-02 -8.30456e-02
      Nb -6.86559e-02  2.07570e-01  1.29130e+01
      Nb  4.84809e+00  2.79754e+00  8.67446e+00
      Nb  4.96421e+00  2.81528e+00  2.14602e+01
      Nb -2.50056e-02  5.46352e+00  1.71941e+01
      Nb  1.60707e-01  5.53837e+00  4.45273e+00
      Li  3.85234e-01 -5.42429e-01  5.76191e+00
      Li -9.66637e-01 -4.12060e-01  1.91741e+01
      Li  5.73124e+00  2.45902e+00  1.49086e+01
      Li  4.61757e+00  3.67078e+00  1.81616e+00
      Li -1.60378e-01  5.12380e+00  2.29352e+01
      Li  2.12239e-01  5.19424e+00  9.98189e+00
       O -1.27487e+00  2.46143e+00  2.85990e+00
       O  3.07932e+00  5.72060e+00  3.31947e+00
       O -1.82033e+00  8.07968e+00  2.40230e+00
       O  1.73472e+00  8.05560e+00  1.56999e+01
       O  1.23354e+00  3.20545e+00  1.58428e+01
       O -3.84246e+00  5.68541e+00  1.53805e+01
       O  3.71056e+00  5.95452e+00  1.14405e+01
       O  3.12728e+00  4.19741e-01  1.14115e+01
       O  7.75897e+00  2.69155e+00  1.14370e+01
       O  1.65479e+00  2.09332e+00  2.43951e+01
       O  5.21896e+00  5.00614e+00  2.41384e+01
       O  6.95840e+00 -3.26698e-01  2.43592e+01
       O -1.14497e+00  7.71802e+00  1.99301e+01
       O -2.41066e+00  3.11338e+00  1.95079e+01
       O  3.61596e+00  5.77289e+00  1.98720e+01
       O -2.74477e+00  5.02489e+00  6.72780e+00
       O  1.07030e+00  7.63898e+00  6.91114e+00
       O  1.57933e+00  3.43053e+00  7.29065e+00
30
# CELL(abcABC):    9.58988     9.58988    25.88886    90.00002    89.99998   120.00001  Step:          18  Bead:       0 positions{atomic_unit}  cell{atomic_unit}
      Nb -9.38468e-02  1.01804e-01 -8.95465e-02
      Nb -7.26944e-02  2.19780e-01  1.29095e+01
      Nb  4.85122e+00  2.79925e+00  8.67548e+00
      Nb  4.97416e+00  2.81803e+00  2.14519e+01
      Nb -2.64768e-02  5.45922e+00  1.71887e+01
      Nb  1.70160e-01  5.53847e+00  4.45923e+00
      Li  4.07896e-01 -5.74336e-01  5.76909e+00
      Li -1.02350e+00 -4.36300e-01  1.92088e+01
      Li  5.78632e+00  2.44082e+00  1.49462e+01
      Li  4.60713e+00  3.72387e+00  1.84505e+00
      Li -1.69812e-01  5.09951e+00  2.29373e+01
      Li  2.24724e-01  5.17410e+00  9.98349e+00
       O -1.27636e+00  2.44981e+00  2.87131e+00
       O  3.07711e+00  5.71043e+00  3.35792e+00
       O -1.81756e+00  8.08097e+00  2.38679e+00
       O  1.72692e+00  8.05547e+00  1.57051e+01
       O  1.23260e+00  3.23759e+00  1.58565e+01
       O -3.88514e+00  5.67318e+00  1.53670e+01
       O  3.72028e+00  5.98553e+00  1.14490e+01